 argument  1 = rhf_mp2.nw
 


============================== echo of input deck ==============================
echo

memory 400 mb

geometry
        O     0.000000000000    0.000000000000   -0.065638538099
        H     0.000000000000   -0.757480611647    0.520865616174
        H     0.000000000000    0.757480611647    0.520865616174
end

basis spherical
* library cc-pvdz
end

scf
 rhf
 thresh 1.0e-8
 nopen 0
end

mp2
tight
end

task mp2 energy
================================================================================


                                         
                                         
 
 
              Northwest Computational Chemistry Package (NWChem) 6.5
              ------------------------------------------------------
 
 
                    Environmental Molecular Sciences Laboratory
                       Pacific Northwest National Laboratory
                                Richland, WA 99352
 
                              Copyright (c) 1994-2014
                       Pacific Northwest National Laboratory
                            Battelle Memorial Institute
 
             NWChem is an open-source computational chemistry package
                        distributed under the terms of the
                      Educational Community License (ECL) 2.0
             A copy of the license is included with this distribution
                              in the LICENSE.TXT file
 
                                  ACKNOWLEDGMENT
                                  --------------

            This software and its documentation were developed at the
            EMSL at Pacific Northwest National Laboratory, a multiprogram
            national laboratory, operated for the U.S. Department of Energy
            by Battelle under Contract Number DE-AC05-76RL01830. Support
            for this work was provided by the Department of Energy Office
            of Biological and Environmental Research, Office of Basic
            Energy Sciences, and the Office of Advanced Scientific Computing.


           Job information
           ---------------

    hostname        = compute-0-13.local
    program         = nwchem
    date            = Thu Nov  1 15:20:01 2018

    compiled        = Mon_Oct_12_17:43:00_2015
    source          = /home/weverett/nwchem-build/nwchem-6.5
    nwchem branch   = 6.5
    nwchem revision = 26243
    ga revision     = 10506
    input           = rhf_mp2.nw
    prefix          = rhf_mp2.
    data base       = ./rhf_mp2.db
    status          = startup
    nproc           =        4
    time left       =     -1s



           Memory information
           ------------------

    heap     =   13107194 doubles =    100.0 Mbytes
    stack    =   13107199 doubles =    100.0 Mbytes
    global   =   26214400 doubles =    200.0 Mbytes (distinct from heap & stack)
    total    =   52428793 doubles =    400.0 Mbytes
    verify   = yes
    hardfail = no 


           Directory information
           ---------------------
 
  0 permanent = .
  0 scratch   = .
 
 
 
 
                                NWChem Input Module
                                -------------------
 
 

 Scaling coordinates for geometry "geometry" by  1.889725989
 (inverse scale =  0.529177249)

 C2V symmetry detected

          ------
          auto-z
          ------
 
 
                             Geometry "geometry" -> ""
                             -------------------------
 
 Output coordinates in angstroms (scale by  1.889725989 to convert to a.u.)
 
  No.       Tag          Charge          X              Y              Z
 ---- ---------------- ---------- -------------- -------------- --------------
    1 O                    8.0000     0.00000000     0.00000000    -0.11730083
    2 H                    1.0000     0.75748061     0.00000000     0.46920332
    3 H                    1.0000    -0.75748061     0.00000000     0.46920332
 
      Atomic Mass 
      ----------- 
 
      O                 15.994910
      H                  1.007825
 

 Effective nuclear repulsion energy (a.u.)       9.1873342402

            Nuclear Dipole moment (a.u.) 
            ----------------------------
        X                 Y               Z
 ---------------- ---------------- ----------------
     0.0000000000     0.0000000000     0.0000000000
 
      Symmetry information
      --------------------
 
 Group name             C2v       
 Group number             16
 Group order               4
 No. of unique centers     2
 
      Symmetry unique atoms
 
     1    2
 


                                Z-matrix (autoz)
                                -------- 

 Units are Angstrom for bonds and degrees for angles
 
      Type          Name      I     J     K     L     M      Value
      ----------- --------  ----- ----- ----- ----- ----- ----------
    1 Stretch                  1     2                       0.95800
    2 Stretch                  1     3                       0.95800
    3 Bend                     2     1     3               104.50000
 
 
            XYZ format geometry
            -------------------
     3
 geometry
 O                     0.00000000     0.00000000    -0.11730083
 H                     0.75748061     0.00000000     0.46920332
 H                    -0.75748061     0.00000000     0.46920332
 
 ==============================================================================
                                internuclear distances
 ------------------------------------------------------------------------------
       center one      |      center two      | atomic units |  angstroms
 ------------------------------------------------------------------------------
    2 H                |   1 O                |     1.81036  |     0.95800
    3 H                |   1 O                |     1.81036  |     0.95800
 ------------------------------------------------------------------------------
                         number of included internuclear distances:          2
 ==============================================================================



 ==============================================================================
                                 internuclear angles
 ------------------------------------------------------------------------------
        center 1       |       center 2       |       center 3       |  degrees
 ------------------------------------------------------------------------------
    2 H                |   1 O                |   3 H                |   104.50
 ------------------------------------------------------------------------------
                            number of included internuclear angles:          1
 ==============================================================================



  library name resolved from: environment
  library file name is: </home/weverett/nwchem/6.5-all/data/libraries/>
  


 Summary of "ao basis" -> "" (spherical)
 ------------------------------------------------------------------------------
       Tag                 Description            Shells   Functions and Types
 ---------------- ------------------------------  ------  ---------------------
 *                          cc-pvdz                   on all atoms 


                      Basis "ao basis" -> "ao basis" (spherical)
                      -----
  O (Oxygen)
  ----------
            Exponent  Coefficients 
       -------------- ---------------------------------------------------------
  1 S  1.17200000E+04  0.000710
  1 S  1.75900000E+03  0.005470
  1 S  4.00800000E+02  0.027837
  1 S  1.13700000E+02  0.104800
  1 S  3.70300000E+01  0.283062
  1 S  1.32700000E+01  0.448719
  1 S  5.02500000E+00  0.270952
  1 S  1.01300000E+00  0.015458
 
  2 S  1.17200000E+04 -0.000160
  2 S  1.75900000E+03 -0.001263
  2 S  4.00800000E+02 -0.006267
  2 S  1.13700000E+02 -0.025716
  2 S  3.70300000E+01 -0.070924
  2 S  1.32700000E+01 -0.165411
  2 S  5.02500000E+00 -0.116955
  2 S  1.01300000E+00  0.557368
 
  3 S  3.02300000E-01  1.000000
 
  4 P  1.77000000E+01  0.043018
  4 P  3.85400000E+00  0.228913
  4 P  1.04600000E+00  0.508728
 
  5 P  2.75300000E-01  1.000000
 
  6 D  1.18500000E+00  1.000000
 
  H (Hydrogen)
  ------------
            Exponent  Coefficients 
       -------------- ---------------------------------------------------------
  1 S  1.30100000E+01  0.019685
  1 S  1.96200000E+00  0.137977
  1 S  4.44600000E-01  0.478148
 
  2 S  1.22000000E-01  1.000000
 
  3 P  7.27000000E-01  1.000000
 


 Summary of "ao basis" -> "ao basis" (spherical)
 ------------------------------------------------------------------------------
       Tag                 Description            Shells   Functions and Types
 ---------------- ------------------------------  ------  ---------------------
 O                          cc-pvdz                  6       14   3s2p1d
 H                          cc-pvdz                  3        5   2s1p


                                 NWChem SCF Module
                                 -----------------
 
 

  ao basis        = "ao basis"
  functions       =    24
  atoms           =     3
  closed shells   =     5
  open shells     =     0
  charge          =   0.00
  wavefunction    = RHF 
  input vectors   = atomic
  output vectors  = ./rhf_mp2.movecs
  use symmetry    = T
  symmetry adapt  = T


 Summary of "ao basis" -> "ao basis" (spherical)
 ------------------------------------------------------------------------------
       Tag                 Description            Shells   Functions and Types
 ---------------- ------------------------------  ------  ---------------------
 O                          cc-pvdz                  6       14   3s2p1d
 H                          cc-pvdz                  3        5   2s1p


      Symmetry analysis of basis
      --------------------------
 
        a1         11
        a2          2
        b1          7
        b2          4
 

 Forming initial guess at       0.7s

 
      Superposition of Atomic Density Guess
      -------------------------------------
 
 Sum of atomic energies:         -75.76222910
 
      Non-variational initial energy
      ------------------------------

 Total energy =     -75.924655
 1-e energy   =    -121.762071
 2-e energy   =      36.650083
 HOMO         =      -0.469202
 LUMO         =       0.091173
 
 
      Symmetry analysis of molecular orbitals - initial
      -------------------------------------------------
 
  Numbering of irreducible representations: 
 
     1 a1          2 a2          3 b1          4 b2      
 
  Orbital symmetries:
 
     1 a1          2 a1          3 b1          4 a1          5 b2      
     6 a1          7 b1          8 b1          9 a1         10 a1      
    11 b2         12 b1         13 a1         14 a2         15 b2      
 

 Starting SCF solution at       1.0s



 ----------------------------------------------
         Quadratically convergent ROHF

 Convergence threshold     :          1.000E-08
 Maximum no. of iterations :           30
 Final Fock-matrix accuracy:          1.000E-10
 ----------------------------------------------


 #quartets = 1.953D+03 #integrals = 1.482D+04 #direct =  0.0% #cached =100.0%


 Integral file          = ./rhf_mp2.aoints.0
 Record size in doubles =  65536        No. of integs per rec  =  43688
 Max. records in memory =      2        Max. records in file   = 408818
 No. of bits per label  =      8        No. of bits per value  =     64


File balance: exchanges=     0  moved=     0  time=   0.0


              iter       energy          gnorm     gmax       time
             ----- ------------------- --------- --------- --------
                 1      -75.9918556859  8.32D-01  3.67D-01      0.7
                 2      -76.0244802806  1.74D-01  7.82D-02      0.8
                 3      -76.0267444212  1.47D-02  6.37D-03      0.8
                 4      -76.0267607373  3.42D-05  1.90D-05      0.8
                 5      -76.0267607374  2.14D-10  1.22D-10      0.9


       Final RHF  results 
       ------------------ 

         Total SCF energy =    -76.026760737428
      One-electron energy =   -123.137568018334
      Two-electron energy =     37.923473040741
 Nuclear repulsion energy =      9.187334240165

        Time for solution =      0.4s


 
       Symmetry analysis of molecular orbitals - final
       -----------------------------------------------
 
  Numbering of irreducible representations: 
 
     1 a1          2 a2          3 b1          4 b2      
 
  Orbital symmetries:
 
     1 a1          2 a1          3 b1          4 a1          5 b2      
     6 a1          7 b1          8 b1          9 a1         10 a1      
    11 b2         12 b1         13 a1         14 a2         15 b2      
 
             Final eigenvalues
             -----------------

              1      
    1  -20.5506
    2   -1.3363
    3   -0.6989
    4   -0.5665
    5   -0.4931
    6    0.1854
    7    0.2561
    8    0.7887
    9    0.8537
   10    1.1636
   11    1.2004
   12    1.2534
   13    1.4446
   14    1.4761
   15    1.6745
 
                       ROHF Final Molecular Orbital Analysis
                       -------------------------------------
 
 Vector    2  Occ=2.000000D+00  E=-1.336318D+00  Symmetry=a1
              MO Center=  0.0D+00,  4.1D-35,  5.3D-02, r^2= 5.0D-01
   Bfn.  Coefficient  Atom+Function         Bfn.  Coefficient  Atom+Function  
  ----- ------------  ---------------      ----- ------------  ---------------
     2      0.442963  1 O  s                  3      0.376218  1 O  s          
    15      0.193306  2 H  s                 20      0.193306  3 H  s          
 
 Vector    3  Occ=2.000000D+00  E=-6.988693D-01  Symmetry=b1
              MO Center= -1.1D-16,  2.5D-17,  1.1D-01, r^2= 7.7D-01
   Bfn.  Coefficient  Atom+Function         Bfn.  Coefficient  Atom+Function  
  ----- ------------  ---------------      ----- ------------  ---------------
     4      0.489884  1 O  px                15      0.327837  2 H  s          
    20     -0.327837  3 H  s                  7      0.222100  1 O  px         
 
 Vector    4  Occ=2.000000D+00  E=-5.664605D-01  Symmetry=a1
              MO Center= -1.2D-16, -1.9D-17, -1.6D-01, r^2= 6.7D-01
   Bfn.  Coefficient  Atom+Function         Bfn.  Coefficient  Atom+Function  
  ----- ------------  ---------------      ----- ------------  ---------------
     6      0.545405  1 O  pz                 9      0.365382  1 O  pz         
     3     -0.349600  1 O  s                 15      0.206410  2 H  s          
    20      0.206410  3 H  s                  2     -0.150352  1 O  s          
 
 Vector    5  Occ=2.000000D+00  E=-4.930970D-01  Symmetry=b2
              MO Center= -9.5D-17, -1.6D-16, -9.3D-02, r^2= 6.0D-01
   Bfn.  Coefficient  Atom+Function         Bfn.  Coefficient  Atom+Function  
  ----- ------------  ---------------      ----- ------------  ---------------
     5      0.631196  1 O  py                 8      0.495684  1 O  py         
 
 Vector    6  Occ=0.000000D+00  E= 1.854404D-01  Symmetry=a1
              MO Center=  1.1D-16,  7.1D-17,  6.1D-01, r^2= 3.0D+00
   Bfn.  Coefficient  Atom+Function         Bfn.  Coefficient  Atom+Function  
  ----- ------------  ---------------      ----- ------------  ---------------
     3      1.002036  1 O  s                 16     -0.828996  2 H  s          
    21     -0.828996  3 H  s                  9      0.337285  1 O  pz         
     6      0.190765  1 O  pz         
 
 Vector    7  Occ=0.000000D+00  E= 2.561441D-01  Symmetry=b1
              MO Center=  0.0D+00,  6.2D-21,  6.2D-01, r^2= 3.6D+00
   Bfn.  Coefficient  Atom+Function         Bfn.  Coefficient  Atom+Function  
  ----- ------------  ---------------      ----- ------------  ---------------
    16      1.443127  2 H  s                 21     -1.443127  3 H  s          
     7     -0.670969  1 O  px                 4     -0.283380  1 O  px         
 
 Vector    8  Occ=0.000000D+00  E= 7.887329D-01  Symmetry=b1
              MO Center= -1.7D-16, -3.1D-33,  2.5D-01, r^2= 1.7D+00
   Bfn.  Coefficient  Atom+Function         Bfn.  Coefficient  Atom+Function  
  ----- ------------  ---------------      ----- ------------  ---------------
    15      0.944260  2 H  s                 20     -0.944260  3 H  s          
    16     -0.687202  2 H  s                 21      0.687202  3 H  s          
     7     -0.459993  1 O  px                 4     -0.268127  1 O  px         
    19      0.152696  2 H  pz                24     -0.152696  3 H  pz         
 
 Vector    9  Occ=0.000000D+00  E= 8.536818D-01  Symmetry=a1
              MO Center=  2.2D-16,  1.5D-17,  4.7D-01, r^2= 1.6D+00
   Bfn.  Coefficient  Atom+Function         Bfn.  Coefficient  Atom+Function  
  ----- ------------  ---------------      ----- ------------  ---------------
    15      0.788061  2 H  s                 20      0.788061  3 H  s          
    16     -0.548168  2 H  s                 21     -0.548168  3 H  s          
     6     -0.329228  1 O  pz                 3      0.319882  1 O  s          
    17      0.295536  2 H  px                22     -0.295536  3 H  px         
     2     -0.256009  1 O  s          
 
 Vector   10  Occ=0.000000D+00  E= 1.163570D+00  Symmetry=a1
              MO Center= -4.2D-17, -2.8D-17, -1.4D-01, r^2= 1.2D+00
   Bfn.  Coefficient  Atom+Function         Bfn.  Coefficient  Atom+Function  
  ----- ------------  ---------------      ----- ------------  ---------------
     9      1.278198  1 O  pz                 6     -0.754617  1 O  pz         
     3      0.747375  1 O  s                 15     -0.545742  2 H  s          
    20     -0.545742  3 H  s                 19      0.251215  2 H  pz         
    24      0.251215  3 H  pz         
 
 Vector   11  Occ=0.000000D+00  E= 1.200375D+00  Symmetry=b2
              MO Center= -3.0D-17, -4.3D-17, -1.1D-01, r^2= 1.1D+00
   Bfn.  Coefficient  Atom+Function         Bfn.  Coefficient  Atom+Function  
  ----- ------------  ---------------      ----- ------------  ---------------
     8     -1.024643  1 O  py                 5      0.967831  1 O  py         
 
 Vector   12  Occ=0.000000D+00  E= 1.253359D+00  Symmetry=b1
              MO Center=  6.9D-17, -4.3D-32, -1.2D-01, r^2= 1.7D+00
   Bfn.  Coefficient  Atom+Function         Bfn.  Coefficient  Atom+Function  
  ----- ------------  ---------------      ----- ------------  ---------------
     7      1.763510  1 O  px                16     -0.824407  2 H  s          
    21      0.824407  3 H  s                  4     -0.734381  1 O  px         
    15     -0.379021  2 H  s                 20      0.379021  3 H  s          
    17      0.302796  2 H  px                22      0.302796  3 H  px         
    19      0.186409  2 H  pz                24     -0.186409  3 H  pz         
 
 Vector   13  Occ=0.000000D+00  E= 1.444597D+00  Symmetry=a1
              MO Center= -9.2D-16, -3.9D-18,  5.8D-02, r^2= 1.4D+00
   Bfn.  Coefficient  Atom+Function         Bfn.  Coefficient  Atom+Function  
  ----- ------------  ---------------      ----- ------------  ---------------
     9      0.740271  1 O  pz                19     -0.545121  2 H  pz         
    24     -0.545121  3 H  pz                 2      0.529225  1 O  s          
     3     -0.505875  1 O  s                 15     -0.333464  2 H  s          
    20     -0.333464  3 H  s                 17      0.329783  2 H  px         
    22     -0.329783  3 H  px                16      0.209278  2 H  s          
 
 Vector   14  Occ=0.000000D+00  E= 1.476108D+00  Symmetry=a2
              MO Center= -8.9D-16,  8.7D-20,  4.3D-01, r^2= 1.0D+00
   Bfn.  Coefficient  Atom+Function         Bfn.  Coefficient  Atom+Function  
  ----- ------------  ---------------      ----- ------------  ---------------
    18      0.685555  2 H  py                23     -0.685555  3 H  py         
 
 Vector   15  Occ=0.000000D+00  E= 1.674463D+00  Symmetry=b2
              MO Center=  2.2D-15, -1.1D-16,  2.9D-01, r^2= 1.2D+00
   Bfn.  Coefficient  Atom+Function         Bfn.  Coefficient  Atom+Function  
  ----- ------------  ---------------      ----- ------------  ---------------
    18      0.766952  2 H  py                23      0.766952  3 H  py         
     8     -0.634059  1 O  py                11      0.160828  1 O  d -1       
 

 center of mass
 --------------
 x =   0.00000000 y =   0.00000000 z =  -0.09762755

 moments of inertia (a.u.)
 ------------------
           2.198920681254           0.000000000000           0.000000000000
           0.000000000000           6.328975696429           0.000000000000
           0.000000000000           0.000000000000           4.130055015175
 
  Mulliken analysis of the total density
  --------------------------------------

    Atom       Charge   Shell Charges
 -----------   ------   -------------------------------------------------------
    1 O    8     8.31   2.00  0.83  0.82  2.82  1.82  0.01
    2 H    1     0.85   0.69  0.07  0.09
    3 H    1     0.85   0.69  0.07  0.09
 
       Multipole analysis of the density wrt the origin
       ------------------------------------------------
 
     L   x y z        total         open         nuclear
     -   - - -        -----         ----         -------
     0   0 0 0     -0.000000      0.000000     10.000000
 
     1   1 0 0      0.000000      0.000000      0.000000
     1   0 1 0      0.000000      0.000000      0.000000
     1   0 0 1      0.809392      0.000000      0.000000
 
     2   2 0 0     -3.063581      0.000000      4.097988
     2   1 1 0     -0.000000      0.000000      0.000000
     2   1 0 1     -0.000000      0.000000      0.000000
     2   0 2 0     -5.230346      0.000000      0.000000
     2   0 1 1     -0.000000      0.000000      0.000000
     2   0 0 2     -4.375907      0.000000      1.965440
 

 Parallel integral file used       4 records with       0 large values

                   NWChem MP2 Semi-direct Energy/Gradient Module
                   ---------------------------------------------
 
 
  Basis functions       =     24
  Molecular orbitals    =     24
  Frozen core           =      0
  Frozen virtuals       =      0
  Active alpha occupied =      5
  Active beta occupied  =      5
  Active alpha virtual  =     19
  Active beta virtual   =     19
  Use MO symmetry       = T
  Use skeleton AO sym   = T

  AO/Fock/Back tols     =   1.0D-11  1.0D-11  1.0D-11

 GA uses MA = F    GA memory limited = T

 Available: 
  local mem=  2.62D+07
 global mem=  2.62D+07
 local disk=  2.82D+10
   1 passes of   5:         275808                       2716                      7958.
 
 Semi-direct pass number   1 of   1  for RHF alpha+beta  at        2.2s
Node 0 wrote      0.1 Mb in      0.0 s     Agg I/O rate:    60.0 Mb/s
 Done moints_semi at        2.5s
 Done maket at        2.9s
 Done multipass loop at        2.9s


          -------------------------------------------
          SCF energy                 -76.026760737428
          Correlation energy          -0.204016996305
          Singlet pairs               -0.126722887443
          Triplet pairs               -0.077294108862
          Total MP2 energy           -76.230777733733
          -------------------------------------------



          ---------------------------------------------------
                    Spin Component Scaled (SCS) MP2
          Same spin pairs                     -0.051529405908
          Same spin scaling factor             0.333333333333
          Opposite spin pairs                 -0.152487590397
          Opposite spin scaling fact.          1.200000000000
          SCS-MP2 correlation energy          -0.200161577112
          Total SCS-MP2 energy               -76.226922314540
          ---------------------------------------------------

 -----------------------
 Performance information
 -----------------------

 Timer overhead =  7.00D-07 seconds/call

               Nr. of calls         CPU time (s)                 Wall time (s)                GFlops
             ---------------    -------------------     ------------------------------   -------------------
Name         Min   Avg   Max    Min     Avg     Max     Min     Avg     Max   Mx/calls   Min     Max     Sum
mp2: moin     1     1     1   0.15    0.15    0.16     0.30    0.30    0.30    0.30      0.0     0.0     0.0   
mp2: make     1     1     1   0.16    0.17    0.17     0.33    0.34    0.34    0.34      0.0     0.0     0.0   
mp2: tota     1     1     1   0.42    0.42    0.43     0.98    0.98    0.98    0.98      0.0     0.0     0.0   

 The average no. of pstat calls per process was 3.00D+00
 with a timing overhead of 2.10D-06s


 Task  times  cpu:        1.2s     wall:        2.8s
 
 
                                NWChem Input Module
                                -------------------
 
 
 Summary of allocated global arrays
-----------------------------------
  No active global arrays



                         GA Statistics for process    0
                         ------------------------------

       create   destroy   get      put      acc     scatter   gather  read&inc
calls:  488      488     3027     1485     2315        0        0      156     
number of processes/call 1.22e+00 1.34e+00 1.13e+00 0.00e+00 0.00e+00
bytes total:             1.84e+06 1.02e+06 5.69e+05 0.00e+00 0.00e+00 1.25e+03
bytes remote:            5.05e+05 1.80e+05 2.88e+05 0.00e+00 0.00e+00 0.00e+00
Max memory consumed for GA by this process: 37536 bytes
 
MA_summarize_allocated_blocks: starting scan ...
MA_summarize_allocated_blocks: scan completed: 0 heap blocks, 0 stack blocks
MA usage statistics:

	allocation statistics:
					      heap	     stack
					      ----	     -----
	current number of blocks	         0	         0
	maximum number of blocks	        18	        22
	current total bytes		         0	         0
	maximum total bytes		   1061744	  22509656
	maximum total K-bytes		      1062	     22510
	maximum total M-bytes		         2	        23
 
 
                                     CITATION
                                     --------
                Please cite the following reference when publishing
                           results obtained with NWChem:
 
                 M. Valiev, E.J. Bylaska, N. Govind, K. Kowalski,
              T.P. Straatsma, H.J.J. van Dam, D. Wang, J. Nieplocha,
                        E. Apra, T.L. Windus, W.A. de Jong
                 "NWChem: a comprehensive and scalable open-source
                  solution for large scale molecular simulations"
                      Comput. Phys. Commun. 181, 1477 (2010)
                           doi:10.1016/j.cpc.2010.04.018
 
                                      AUTHORS
                                      -------
          E. Apra, E. J. Bylaska, W. A. de Jong, N. Govind, K. Kowalski,
       T. P. Straatsma, M. Valiev, H. J. J. van Dam, D. Wang, T. L. Windus,
        J. Hammond, J. Autschbach, K. Bhaskaran-Nair, J. Brabec, K. Lopata,
        S. Krishnamoorthy, W. Ma, M. Klemm, O. Villa, Y. Chen, V. Anisimov,
    F. Aquino, S. Hirata, M. T. Hackler, T. Risthaus, M. Malagoli, A. Marenich,
   A. Otero-de-la-Roza, J. Mullin, P. Nichols, R. Peverati, J. Pittner, Y. Zhao,
         P.-D. Fan, A. Fonari, R. J. Harrison, M. Dupuis, D. Silverstein,
    D. M. A. Smith, J. Nieplocha, V. Tipparaju, M. Krishnan, B. E. Van Kuiken,
        A. Vazquez-Mayagoitia, L. Jensen, M. Swart, Q. Wu, T. Van Voorhis,
     A. A. Auer, M. Nooijen, L. D. Crosby, E. Brown, G. Cisneros, G. I. Fann,
   H. Fruchtl, J. Garza, K. Hirao, R. A. Kendall, J. A. Nichols, K. Tsemekhman,
    K. Wolinski, J. Anchell, D. E. Bernholdt, P. Borowski, T. Clark, D. Clerc,
   H. Dachsel, M. J. O. Deegan, K. Dyall, D. Elwood, E. Glendening, M. Gutowski,
   A. C. Hess, J. Jaffe, B. G. Johnson, J. Ju, R. Kobayashi, R. Kutteh, Z. Lin,
   R. Littlefield, X. Long, B. Meng, T. Nakajima, S. Niu, L. Pollack, M. Rosing,
   K. Glaesemann, G. Sandrone, M. Stave, H. Taylor, G. Thomas, J. H. van Lenthe,
                               A. T. Wong, Z. Zhang.

 Total times  cpu:        1.3s     wall:        2.9s
