export PBS_NODEFILE=/scratch/alolinco/318956/jg9buGgdyn
export TMPDIR=/scratch/alolinco/318956
export TMOUT=5400
 argument  1 = tce_cisdtq_h2o.nw
 


============================== echo of input deck ==============================
start h2o

memory  1500 mb

echo

geometry units bohr
O      0.000000000000     0.000000000000    -0.123909374404
H      0.000000000000     1.429936611037     0.983265845431
H      0.000000000000    -1.429936611037     0.983265845431
symmetry c1
end

basis
H library sto-3g
O library sto-3g
end

scf
thresh 1.0e-10
tol2e 1.0e-10
singlet
rhf
end


tce
cisdtq
end

task tce energy
================================================================================


                                         
                                         
 
 
              Northwest Computational Chemistry Package (NWChem) 6.6
              ------------------------------------------------------
 
 
                    Environmental Molecular Sciences Laboratory
                       Pacific Northwest National Laboratory
                                Richland, WA 99352
 
                              Copyright (c) 1994-2015
                       Pacific Northwest National Laboratory
                            Battelle Memorial Institute
 
             NWChem is an open-source computational chemistry package
                        distributed under the terms of the
                      Educational Community License (ECL) 2.0
             A copy of the license is included with this distribution
                              in the LICENSE.TXT file
 
                                  ACKNOWLEDGMENT
                                  --------------

            This software and its documentation were developed at the
            EMSL at Pacific Northwest National Laboratory, a multiprogram
            national laboratory, operated for the U.S. Department of Energy
            by Battelle under Contract Number DE-AC05-76RL01830. Support
            for this work was provided by the Department of Energy Office
            of Biological and Environmental Research, Office of Basic
            Energy Sciences, and the Office of Advanced Scientific Computing.


           Job information
           ---------------

    hostname        = condo012
    program         = nwchem
    date            = Tue Jul 17 11:24:49 2018

    compiled        = Tue_Oct_24_08:26:58_2017
    source          = /home/weverett/build/nwchem/nwchem-6.6-intel
    nwchem branch   = 6.6
    nwchem revision = 27746
    ga revision     = 10594
    input           = tce_cisdtq_h2o.nw
    prefix          = h2o.
    data base       = ./h2o.db
    status          = startup
    nproc           =        4
    time left       =     -1s



           Memory information
           ------------------

    heap     =   49152000 doubles =    375.0 Mbytes
    stack    =   49151997 doubles =    375.0 Mbytes
    global   =   98304000 doubles =    750.0 Mbytes (distinct from heap & stack)
    total    =  196607997 doubles =   1500.0 Mbytes
    verify   = yes
    hardfail = no 


           Directory information
           ---------------------
 
  0 permanent = .
  0 scratch   = .
 
 
 
 
                                NWChem Input Module
                                -------------------
 
 
 Turning off AUTOSYM since
 SYMMETRY directive was detected!
 

          ------
          auto-z
          ------
 
 
                             Geometry "geometry" -> ""
                             -------------------------
 
 Output coordinates in a.u. (scale by  1.000000000 to convert to a.u.)
 
  No.       Tag          Charge          X              Y              Z
 ---- ---------------- ---------- -------------- -------------- --------------
    1 O                    8.0000     0.00000000     0.00000000    -0.22143504
    2 H                    1.0000     0.00000000     1.42993661     0.88574018
    3 H                    1.0000     0.00000000    -1.42993661     0.88574018
 
      Atomic Mass 
      ----------- 
 
      O                 15.994910
      H                  1.007825
 

 Effective nuclear repulsion energy (a.u.)       9.1969343804

            Nuclear Dipole moment (a.u.) 
            ----------------------------
        X                 Y               Z
 ---------------- ---------------- ----------------
     0.0000000000     0.0000000000     0.0000000000
 


                                Z-matrix (autoz)
                                -------- 

 Units are Angstrom for bonds and degrees for angles
 
      Type          Name      I     J     K     L     M      Value
      ----------- --------  ----- ----- ----- ----- ----- ----------
    1 Stretch                  1     2                       0.95700
    2 Stretch                  1     3                       0.95700
    3 Bend                     2     1     3               104.50000
 
 
            XYZ format geometry
            -------------------
     3
 geometry
 O                     0.00000000     0.00000000    -0.11717839
 H                     0.00000000     0.75668992     0.46871355
 H                     0.00000000    -0.75668992     0.46871355
 
 ==============================================================================
                                internuclear distances
 ------------------------------------------------------------------------------
       center one      |      center two      | atomic units |       a.u.
 ------------------------------------------------------------------------------
    2 H                |   1 O                |     1.80847  |     1.80847
    3 H                |   1 O                |     1.80847  |     1.80847
 ------------------------------------------------------------------------------
                         number of included internuclear distances:          2
 ==============================================================================



 ==============================================================================
                                 internuclear angles
 ------------------------------------------------------------------------------
        center 1       |       center 2       |       center 3       |  degrees
 ------------------------------------------------------------------------------
    2 H                |   1 O                |   3 H                |   104.50
 ------------------------------------------------------------------------------
                            number of included internuclear angles:          1
 ==============================================================================



  library name resolved from: environment
  library file name is: </work/LAS/twindus-lab/nwchem/6.6-intel/data/libraries/>
  
                      Basis "ao basis" -> "" (cartesian)
                      -----
  H (Hydrogen)
  ------------
            Exponent  Coefficients 
       -------------- ---------------------------------------------------------
  1 S  3.42525091E+00  0.154329
  1 S  6.23913730E-01  0.535328
  1 S  1.68855400E-01  0.444635
 
  O (Oxygen)
  ----------
            Exponent  Coefficients 
       -------------- ---------------------------------------------------------
  1 S  1.30709320E+02  0.154329
  1 S  2.38088610E+01  0.535328
  1 S  6.44360830E+00  0.444635
 
  2 S  5.03315130E+00 -0.099967
  2 S  1.16959610E+00  0.399513
  2 S  3.80389000E-01  0.700115
 
  3 P  5.03315130E+00  0.155916
  3 P  1.16959610E+00  0.607684
  3 P  3.80389000E-01  0.391957
 


 Summary of "ao basis" -> "" (cartesian)
 ------------------------------------------------------------------------------
       Tag                 Description            Shells   Functions and Types
 ---------------- ------------------------------  ------  ---------------------
 H                           sto-3g                  1        1   1s
 O                           sto-3g                  3        5   2s1p


                                 NWChem SCF Module
                                 -----------------
 
 

  ao basis        = "ao basis"
  functions       =     7
  atoms           =     3
  closed shells   =     5
  open shells     =     0
  charge          =   0.00
  wavefunction    = RHF 
  input vectors   = atomic
  output vectors  = ./h2o.movecs
  use symmetry    = F
  symmetry adapt  = F


 Summary of "ao basis" -> "ao basis" (cartesian)
 ------------------------------------------------------------------------------
       Tag                 Description            Shells   Functions and Types
 ---------------- ------------------------------  ------  ---------------------
 H                           sto-3g                  1        1   1s
 O                           sto-3g                  3        5   2s1p



 Forming initial guess at       0.1s

 
      Superposition of Atomic Density Guess
      -------------------------------------
 
 Sum of atomic energies:         -74.71095592
 
      Non-variational initial energy
      ------------------------------

 Total energy =     -74.684814
 1-e energy   =    -121.789012
 2-e energy   =      37.907264
 HOMO         =      -0.258571
 LUMO         =       0.505624
 

 Starting SCF solution at       0.2s



 ----------------------------------------------
         Quadratically convergent ROHF

 Convergence threshold     :          1.000E-10
 Maximum no. of iterations :           30
 Final Fock-matrix accuracy:          1.000E-10
 ----------------------------------------------


 #quartets = 1.200D+02 #integrals = 2.560D+02 #direct =  0.0% #cached =100.0%


 Integral file          = ./h2o.aoints.0
 Record size in doubles =    65536    No. of integs per rec  =    43688
 Max. records in memory =        2    Max. records in file   =  1240321
 No. of bits per label  =        8    No. of bits per value  =       64


File balance: exchanges=     0  moved=     0  time=   0.0


              iter       energy          gnorm     gmax       time
             ----- ------------------- --------- --------- --------
                 1      -74.9243513093  6.49D-01  5.52D-01      0.0
                 2      -74.9620756344  1.36D-01  1.01D-01      0.0
                 3      -74.9628872940  2.06D-02  1.64D-02      0.0
                 4      -74.9629054059  5.44D-05  4.16D-05      0.0
                 5      -74.9629054062  2.50D-10  2.07D-10      0.0
                 6      -74.9629054062  3.16D-13  3.06D-13      0.0


       Final RHF  results 
       ------------------ 

         Total SCF energy =    -74.962905406171
      One-electron energy =   -122.374423325933
      Two-electron energy =     38.214583539319
 Nuclear repulsion energy =      9.196934380443

        Time for solution =      0.0s


             Final eigenvalues
             -----------------

              1      
    1  -20.2417
    2   -1.2685
    3   -0.6180
    4   -0.4531
    5   -0.3913
    6    0.6059
    7    0.7426
 
                       ROHF Final Molecular Orbital Analysis
                       -------------------------------------
 
 Vector    2  Occ=2.000000D+00  E=-1.268536D+00
              MO Center=  5.0D-21,  3.2D-16,  7.3D-02, r^2= 5.4D-01
   Bfn.  Coefficient  Atom+Function         Bfn.  Coefficient  Atom+Function  
  ----- ------------  ---------------      ----- ------------  ---------------
     2      0.833413  1 O  s                  1     -0.232776  1 O  s          
     6      0.158732  2 H  s                  7      0.158732  3 H  s          
 
 Vector    3  Occ=2.000000D+00  E=-6.180077D-01
              MO Center=  4.6D-35, -8.9D-16,  1.4D-01, r^2= 8.3D-01
   Bfn.  Coefficient  Atom+Function         Bfn.  Coefficient  Atom+Function  
  ----- ------------  ---------------      ----- ------------  ---------------
     4      0.606480  1 O  py                 6      0.444999  2 H  s          
     7     -0.444999  3 H  s          
 
 Vector    4  Occ=2.000000D+00  E=-4.530671D-01
              MO Center=  1.3D-19,  2.9D-16, -1.6D-01, r^2= 6.2D-01
   Bfn.  Coefficient  Atom+Function         Bfn.  Coefficient  Atom+Function  
  ----- ------------  ---------------      ----- ------------  ---------------
     5      0.776726  1 O  pz                 2     -0.536987  1 O  s          
     6      0.277769  2 H  s                  7      0.277769  3 H  s          
 
 Vector    5  Occ=2.000000D+00  E=-3.912735D-01
              MO Center= -1.6D-19, -3.8D-36, -1.2D-01, r^2= 4.2D-01
   Bfn.  Coefficient  Atom+Function         Bfn.  Coefficient  Atom+Function  
  ----- ------------  ---------------      ----- ------------  ---------------
     3      1.000000  1 O  px         
 
 Vector    6  Occ=0.000000D+00  E= 6.059099D-01
              MO Center=  2.8D-20,  7.1D-15,  3.9D-01, r^2= 1.1D+00
   Bfn.  Coefficient  Atom+Function         Bfn.  Coefficient  Atom+Function  
  ----- ------------  ---------------      ----- ------------  ---------------
     2      0.885068  1 O  s                  6     -0.797287  2 H  s          
     7     -0.797287  3 H  s                  5      0.742437  1 O  pz         
 
 Vector    7  Occ=0.000000D+00  E= 7.425787D-01
              MO Center=  1.8D-33, -6.4D-15,  2.3D-01, r^2= 1.0D+00
   Bfn.  Coefficient  Atom+Function         Bfn.  Coefficient  Atom+Function  
  ----- ------------  ---------------      ----- ------------  ---------------
     4      0.990661  1 O  py                 6     -0.838899  2 H  s          
     7      0.838899  3 H  s          
 

 center of mass
 --------------
 x =   0.00000000 y =   0.00000000 z =  -0.09752564

 moments of inertia (a.u.)
 ------------------
           6.315769699608           0.000000000000           0.000000000000
           0.000000000000           2.194332428604           0.000000000000
           0.000000000000           0.000000000000           4.121437271004
 
  Mulliken analysis of the total density
  --------------------------------------

    Atom       Charge   Shell Charges
 -----------   ------   -------------------------------------------------------
    1 O    8     8.37   2.00  1.83  4.54
    2 H    1     0.82   0.82
    3 H    1     0.82   0.82
 
       Multipole analysis of the density wrt the origin
       ------------------------------------------------
 
     L   x y z        total         open         nuclear
     -   - - -        -----         ----         -------
     0   0 0 0     -0.000000      0.000000     10.000000
 
     1   1 0 0      0.000000      0.000000      0.000000
     1   0 1 0      0.000000      0.000000      0.000000
     1   0 0 1      0.679135      0.000000      0.000000
 
     2   2 0 0     -4.530864      0.000000      0.000000
     2   1 1 0     -0.000000      0.000000      0.000000
     2   1 0 1      0.000000      0.000000      0.000000
     2   0 2 0     -3.240264      0.000000      4.089437
     2   0 1 1      0.000000      0.000000      0.000000
     2   0 0 2     -4.009875      0.000000      1.961339
 

 Parallel integral file used       4 records with       0 large values

                   NWChem Extensible Many-Electron Theory Module
                   ---------------------------------------------
 
              ======================================================
                   This portion of the program was automatically
                  generated by a Tensor Contraction Engine (TCE).
                  The development of this portion of the program
                 and TCE was supported by US Department of Energy,
                Office of Science, Office of Basic Energy Science.
                      TCE is a product of Battelle and PNNL.
              Please cite: S.Hirata, J.Phys.Chem.A 107, 9887 (2003).
              ======================================================
 
            General Information
            -------------------
      Number of processors :     4
         Wavefunction type : Restricted Hartree-Fock
          No. of electrons :    10
           Alpha electrons :     5
            Beta electrons :     5
           No. of orbitals :    14
            Alpha orbitals :     7
             Beta orbitals :     7
        Alpha frozen cores :     0
         Beta frozen cores :     0
     Alpha frozen virtuals :     0
      Beta frozen virtuals :     0
         Spin multiplicity : singlet 
    Number of AO functions :     7
       Number of AO shells :     5
        Use of symmetry is : off
      Symmetry adaption is : off
         Schwarz screening : 0.10D-09
 
          Correlation Information
          -----------------------
          Calculation type : Configuration interaction singles through quadruples        
   Perturbative correction : none                                                        
            Max iterations :      100
        Residual threshold : 0.10D-06
     T(0) DIIS level shift : 0.00D+00
     L(0) DIIS level shift : 0.00D+00
     T(1) DIIS level shift : 0.00D+00
     L(1) DIIS level shift : 0.00D+00
     T(R) DIIS level shift : 0.00D+00
     T(I) DIIS level shift : 0.00D+00
   CC-T/L Amplitude update :  5-th order DIIS
                I/O scheme : Global Array Library
        L-threshold :  0.10D-06
        EOM-threshold :  0.10D-06
 no EOMCCSD initial starts read in
 TCE RESTART OPTIONS
 READ_INT:   F
 WRITE_INT:  F
 READ_TA:    F
 WRITE_TA:   F
 READ_XA:    F
 WRITE_XA:   F
 READ_IN3:   F
 WRITE_IN3:  F
 SLICE:      F
 D4D5:       F
 
            Memory Information
            ------------------
          Available GA space size is     393215951 doubles
          Available MA space size is      98303284 doubles
 
 Maximum block size        12 doubles

 tile_dim =      5

 Block   Spin    Irrep     Size     Offset   Alpha
 -------------------------------------------------
   1    alpha     a      5 doubles       0       1
   2    beta      a      5 doubles       5       1
   3    alpha     a      2 doubles      10       3
   4    beta      a      2 doubles      12       3

 Global array virtual files algorithm will be used

 Parallel file system coherency ......... OK

 #quartets = 1.200D+02 #integrals = 2.560D+02 #direct =  0.0% #cached =100.0%


 Integral file          = ./h2o.aoints.0
 Record size in doubles =    65536    No. of integs per rec  =    43688
 Max. records in memory =        2    Max. records in file   =  1240321
 No. of bits per label  =        8    No. of bits per value  =       64


File balance: exchanges=     0  moved=     0  time=   0.0

 
 Fock matrix recomputed
 1-e file size   =               49
 1-e file name   = ./h2o.f1            
 Cpu & wall time / sec            0.0            0.0
 
 tce_ao2e: fast2e=1
 half-transformed integrals in memory
 
 2-e (intermediate) file size =            6223
 2-e (intermediate) file name = ./h2o.v2i
 Cpu & wall time / sec            0.0            0.0
 
 tce_mo2e: fast2e=1
 2-e integrals stored in memory
 
 2-e file size   =             3922
 2-e file name   = ./h2o.v2            
 Cpu & wall time / sec            0.0            0.0
 T1-number-of-tasks                     1
 
 t1 file size   =               10
 t1 file name   = ./h2o.t1            
 t1 file handle =       -999
 T2-number-of-boxes                     2
 
 t2 file size   =              200
 t2 file name   = ./h2o.t2            
 t2 file handle =       -996
 
 t3 file size   =             3000
 t3 file name   = ./h2o.t3            
 
 t4 file size   =            40000
 t4 file name   = ./h2o.t4            

 CISDTQ iterations
 --------------------------------------------------------
 Iter          Residuum       Correlation     Cpu    Wall
 --------------------------------------------------------
 ------------------------------------------------------------------------
 CISDTQ not compiled                   0
 ------------------------------------------------------------------------
 ------------------------------------------------------------------------
  current input line : 
    31: task tce energy
 ------------------------------------------------------------------------
 ------------------------------------------------------------------------
 A feature requested has not yet been implemented
 
 ------------------------------------------------------------------------
 For more information see the NWChem manual at 
 http://www.nwchem-sw.org/index.php/NWChem_Documentation


 For further details see manual section: 
                                                                                
                                                                                
                                                                                
                   
0:0:CISDTQ not compiled:: -1
(rank:0 hostname:condo012 pid:1484):ARMCI DASSERT fail. ../../ga-5-4/armci/src/common/armci.c:ARMCI_Error():208 cond:0
Last System Error Message from Task 0:: No such file or directory
application called MPI_Abort(comm=0x84000007, -1) - process 0
