export TMOUT=5400
export TMPDIR=/scratch/alolinco/516261
export PTMPDIR=/ptmp/alolinco/516261
 argument  1 = rhf_nh2.nw
 


============================== echo of input deck ==============================
echo

memory 300 mb

geometry
zmat
 N
 H 1 1.008
 H 1 1.008 2 105.0
end

basis cartesian
* library cc-pVDZ
end

scf
rhf
nopen 1
thresh 1.0e-8
end

task scf energy
================================================================================


                                         
                                         
 
 
              Northwest Computational Chemistry Package (NWChem) 6.6
              ------------------------------------------------------
 
 
                    Environmental Molecular Sciences Laboratory
                       Pacific Northwest National Laboratory
                                Richland, WA 99352
 
                              Copyright (c) 1994-2015
                       Pacific Northwest National Laboratory
                            Battelle Memorial Institute
 
             NWChem is an open-source computational chemistry package
                        distributed under the terms of the
                      Educational Community License (ECL) 2.0
             A copy of the license is included with this distribution
                              in the LICENSE.TXT file
 
                                  ACKNOWLEDGMENT
                                  --------------

            This software and its documentation were developed at the
            EMSL at Pacific Northwest National Laboratory, a multiprogram
            national laboratory, operated for the U.S. Department of Energy
            by Battelle under Contract Number DE-AC05-76RL01830. Support
            for this work was provided by the Department of Energy Office
            of Biological and Environmental Research, Office of Basic
            Energy Sciences, and the Office of Advanced Scientific Computing.


           Job information
           ---------------

    hostname        = condo136
    program         = /work/LAS/twindus-lab/nwchem/6.6/bin/nwchem
    date            = Wed Apr 24 14:58:15 2019

    compiled        = Tue_Oct_24_08:26:58_2017
    source          = /home/weverett/build/nwchem/nwchem-6.6-intel
    nwchem branch   = 6.6
    nwchem revision = 27746
    ga revision     = 10594
    input           = rhf_nh2.nw
    prefix          = rhf_nh2.
    data base       = ./rhf_nh2.db
    status          = startup
    nproc           =        4
    time left       =     -1s



           Memory information
           ------------------

    heap     =    9830396 doubles =     75.0 Mbytes
    stack    =    9830401 doubles =     75.0 Mbytes
    global   =   19660800 doubles =    150.0 Mbytes (distinct from heap & stack)
    total    =   39321597 doubles =    300.0 Mbytes
    verify   = yes
    hardfail = no 


           Directory information
           ---------------------
 
  0 permanent = .
  0 scratch   = .
 
 
 
 
                                NWChem Input Module
                                -------------------
 
 
 ------------------------------------------------------------------------
 geom_input: <tag> <x> <y> <z>  [charge <q>] [mass <m>] [nuc[leus] point|pt|finite|fi]                   4
 ------------------------------------------------------------------------
 ------------------------------------------------------------------------
  current input line : 
    12: basis cartesian
 ------------------------------------------------------------------------
 ------------------------------------------------------------------------
 There is an error in the input file
 ------------------------------------------------------------------------
 For more information see the NWChem manual at 
 http://www.nwchem-sw.org/index.php/NWChem_Documentation


 For further details see manual section: 
                                                                                
                                                                                
                                                                                
                   
0:0:geom_input: <tag> <x> <y> <z>  [charge <q>] [mass <m>] [nuc[leus] point|pt|finite|fi]:: 4
(rank:0 hostname:condo136 pid:6050):ARMCI DASSERT fail. ../../ga-5-4/armci/src/common/armci.c:ARMCI_Error():208 cond:0
Last System Error Message from Task 0:: No such file or directory
application called MPI_Abort(comm=0x84000007, 4) - process 0
In: PMI_Abort(4, application called MPI_Abort(comm=0x84000007, 4) - process 0)
srun: Job step aborted: Waiting up to 32 seconds for job step to finish.
slurmstepd: error: *** STEP 516261.0 ON condo136 CANCELLED AT 2019-04-24T14:58:15 ***
srun: error: condo136: task 0: Exited with exit code 4
srun: error: condo136: tasks 1-3: Killed
