 argument  1 = rhf_ccsd-t-.nw
 


============================== echo of input deck ==============================
echo

start sp-rhf-ccsd_t_

memory 600 mb
geometry
O     0.000000000000    0.000000000000   -0.065638538099
H     0.000000000000   -0.757480611647    0.520865616174
H     0.000000000000    0.757480611647    0.520865616174
end

basis spherical
* library cc-pvdz
end

scf
 rhf
 thresh 1.0e-1
end

tce
 scf
 ccsd(t)
 thresh 1.0e-12
end

task tce energy
================================================================================


                                         
                                         
 
 
              Northwest Computational Chemistry Package (NWChem) 6.5
              ------------------------------------------------------
 
 
                    Environmental Molecular Sciences Laboratory
                       Pacific Northwest National Laboratory
                                Richland, WA 99352
 
                              Copyright (c) 1994-2014
                       Pacific Northwest National Laboratory
                            Battelle Memorial Institute
 
             NWChem is an open-source computational chemistry package
                        distributed under the terms of the
                      Educational Community License (ECL) 2.0
             A copy of the license is included with this distribution
                              in the LICENSE.TXT file
 
                                  ACKNOWLEDGMENT
                                  --------------

            This software and its documentation were developed at the
            EMSL at Pacific Northwest National Laboratory, a multiprogram
            national laboratory, operated for the U.S. Department of Energy
            by Battelle under Contract Number DE-AC05-76RL01830. Support
            for this work was provided by the Department of Energy Office
            of Biological and Environmental Research, Office of Basic
            Energy Sciences, and the Office of Advanced Scientific Computing.


           Job information
           ---------------

    hostname        = compute-0-13.local
    program         = nwchem
    date            = Thu Sep 13 10:12:41 2018

    compiled        = Mon_Oct_12_17:43:00_2015
    source          = /home/weverett/nwchem-build/nwchem-6.5
    nwchem branch   = 6.5
    nwchem revision = 26243
    ga revision     = 10506
    input           = rhf_ccsd-t-.nw
    prefix          = sp-rhf-ccsd_t_.
    data base       = ./sp-rhf-ccsd_t_.db
    status          = startup
    nproc           =        4
    time left       =     -1s



           Memory information
           ------------------

    heap     =   19660794 doubles =    150.0 Mbytes
    stack    =   19660799 doubles =    150.0 Mbytes
    global   =   39321600 doubles =    300.0 Mbytes (distinct from heap & stack)
    total    =   78643193 doubles =    600.0 Mbytes
    verify   = yes
    hardfail = no 


           Directory information
           ---------------------
 
  0 permanent = .
  0 scratch   = .
 
 
 
 
                                NWChem Input Module
                                -------------------
 
 

 Scaling coordinates for geometry "geometry" by  1.889725989
 (inverse scale =  0.529177249)

 C2V symmetry detected

          ------
          auto-z
          ------
 
 
                             Geometry "geometry" -> ""
                             -------------------------
 
 Output coordinates in angstroms (scale by  1.889725989 to convert to a.u.)
 
  No.       Tag          Charge          X              Y              Z
 ---- ---------------- ---------- -------------- -------------- --------------
    1 O                    8.0000     0.00000000     0.00000000    -0.11730083
    2 H                    1.0000     0.75748061     0.00000000     0.46920332
    3 H                    1.0000    -0.75748061     0.00000000     0.46920332
 
      Atomic Mass 
      ----------- 
 
      O                 15.994910
      H                  1.007825
 

 Effective nuclear repulsion energy (a.u.)       9.1873342402

            Nuclear Dipole moment (a.u.) 
            ----------------------------
        X                 Y               Z
 ---------------- ---------------- ----------------
     0.0000000000     0.0000000000     0.0000000000
 
      Symmetry information
      --------------------
 
 Group name             C2v       
 Group number             16
 Group order               4
 No. of unique centers     2
 
      Symmetry unique atoms
 
     1    2
 


                                Z-matrix (autoz)
                                -------- 

 Units are Angstrom for bonds and degrees for angles
 
      Type          Name      I     J     K     L     M      Value
      ----------- --------  ----- ----- ----- ----- ----- ----------
    1 Stretch                  1     2                       0.95800
    2 Stretch                  1     3                       0.95800
    3 Bend                     2     1     3               104.50000
 
 
            XYZ format geometry
            -------------------
     3
 geometry
 O                     0.00000000     0.00000000    -0.11730083
 H                     0.75748061     0.00000000     0.46920332
 H                    -0.75748061     0.00000000     0.46920332
 
 ==============================================================================
                                internuclear distances
 ------------------------------------------------------------------------------
       center one      |      center two      | atomic units |  angstroms
 ------------------------------------------------------------------------------
    2 H                |   1 O                |     1.81036  |     0.95800
    3 H                |   1 O                |     1.81036  |     0.95800
 ------------------------------------------------------------------------------
                         number of included internuclear distances:          2
 ==============================================================================



 ==============================================================================
                                 internuclear angles
 ------------------------------------------------------------------------------
        center 1       |       center 2       |       center 3       |  degrees
 ------------------------------------------------------------------------------
    2 H                |   1 O                |   3 H                |   104.50
 ------------------------------------------------------------------------------
                            number of included internuclear angles:          1
 ==============================================================================



  library name resolved from: environment
  library file name is: </home/weverett/nwchem/6.5-all/data/libraries/>
  


 Summary of "ao basis" -> "" (spherical)
 ------------------------------------------------------------------------------
       Tag                 Description            Shells   Functions and Types
 ---------------- ------------------------------  ------  ---------------------
 *                          cc-pvdz                   on all atoms 


                      Basis "ao basis" -> "ao basis" (spherical)
                      -----
  O (Oxygen)
  ----------
            Exponent  Coefficients 
       -------------- ---------------------------------------------------------
  1 S  1.17200000E+04  0.000710
  1 S  1.75900000E+03  0.005470
  1 S  4.00800000E+02  0.027837
  1 S  1.13700000E+02  0.104800
  1 S  3.70300000E+01  0.283062
  1 S  1.32700000E+01  0.448719
  1 S  5.02500000E+00  0.270952
  1 S  1.01300000E+00  0.015458
 
  2 S  1.17200000E+04 -0.000160
  2 S  1.75900000E+03 -0.001263
  2 S  4.00800000E+02 -0.006267
  2 S  1.13700000E+02 -0.025716
  2 S  3.70300000E+01 -0.070924
  2 S  1.32700000E+01 -0.165411
  2 S  5.02500000E+00 -0.116955
  2 S  1.01300000E+00  0.557368
 
  3 S  3.02300000E-01  1.000000
 
  4 P  1.77000000E+01  0.043018
  4 P  3.85400000E+00  0.228913
  4 P  1.04600000E+00  0.508728
 
  5 P  2.75300000E-01  1.000000
 
  6 D  1.18500000E+00  1.000000
 
  H (Hydrogen)
  ------------
            Exponent  Coefficients 
       -------------- ---------------------------------------------------------
  1 S  1.30100000E+01  0.019685
  1 S  1.96200000E+00  0.137977
  1 S  4.44600000E-01  0.478148
 
  2 S  1.22000000E-01  1.000000
 
  3 P  7.27000000E-01  1.000000
 


 Summary of "ao basis" -> "ao basis" (spherical)
 ------------------------------------------------------------------------------
       Tag                 Description            Shells   Functions and Types
 ---------------- ------------------------------  ------  ---------------------
 O                          cc-pvdz                  6       14   3s2p1d
 H                          cc-pvdz                  3        5   2s1p


                                 NWChem SCF Module
                                 -----------------
 
 

  ao basis        = "ao basis"
  functions       =    24
  atoms           =     3
  closed shells   =     5
  open shells     =     0
  charge          =   0.00
  wavefunction    = RHF 
  input vectors   = atomic
  output vectors  = ./sp-rhf-ccsd_t_.movecs
  use symmetry    = T
  symmetry adapt  = T


 Summary of "ao basis" -> "ao basis" (spherical)
 ------------------------------------------------------------------------------
       Tag                 Description            Shells   Functions and Types
 ---------------- ------------------------------  ------  ---------------------
 O                          cc-pvdz                  6       14   3s2p1d
 H                          cc-pvdz                  3        5   2s1p


      Symmetry analysis of basis
      --------------------------
 
        a1         11
        a2          2
        b1          7
        b2          4
 

 Forming initial guess at       0.4s

 
      Superposition of Atomic Density Guess
      -------------------------------------
 
 Sum of atomic energies:         -75.76222910
 
      Non-variational initial energy
      ------------------------------

 Total energy =     -75.924655
 1-e energy   =    -121.762071
 2-e energy   =      36.650083
 HOMO         =      -0.469202
 LUMO         =       0.091173
 
 
      Symmetry analysis of molecular orbitals - initial
      -------------------------------------------------
 
  Numbering of irreducible representations: 
 
     1 a1          2 a2          3 b1          4 b2      
 
  Orbital symmetries:
 
     1 a1          2 a1          3 b1          4 a1          5 b2      
     6 a1          7 b1          8 b1          9 a1         10 a1      
    11 b2         12 b1         13 a1         14 a2         15 b2      
 

 Starting SCF solution at       0.7s



 ----------------------------------------------
         Quadratically convergent ROHF

 Convergence threshold     :          1.000E-01
 Maximum no. of iterations :           30
 Final Fock-matrix accuracy:          1.000E-07
 ----------------------------------------------


 #quartets = 1.953D+03 #integrals = 1.482D+04 #direct =  0.0% #cached =100.0%


 Integral file          = ./sp-rhf-ccsd_t_.aoints.0
 Record size in doubles =  65536        No. of integs per rec  =  43688
 Max. records in memory =      2        Max. records in file   = 409208
 No. of bits per label  =      8        No. of bits per value  =     64


File balance: exchanges=     0  moved=     0  time=   0.0


              iter       energy          gnorm     gmax       time
             ----- ------------------- --------- --------- --------
                 1      -75.9918556859  8.32D-01  3.67D-01      0.5
                 2      -76.0244802806  1.74D-01  7.82D-02      0.6
                 3      -76.0267444212  1.47D-02  6.37D-03      0.8


       Final RHF  results 
       ------------------ 

         Total SCF energy =    -76.026744421192
      One-electron energy =   -123.135343596941
      Two-electron energy =     37.921264935584
 Nuclear repulsion energy =      9.187334240165

        Time for solution =      0.4s


 
       Symmetry analysis of molecular orbitals - final
       -----------------------------------------------
 
  Numbering of irreducible representations: 
 
     1 a1          2 a2          3 b1          4 b2      
 
  Orbital symmetries:
 
     1 a1          2 a1          3 b1          4 a1          5 b2      
     6 a1          7 b1          8 b1          9 a1         10 a1      
    11 b2         12 b1         13 a1         14 a2         15 b2      
 
             Final eigenvalues
             -----------------

              1      
    1  -20.5515
    2   -1.3363
    3   -0.6992
    4   -0.5666
    5   -0.4929
    6    0.1856
    7    0.2560
    8    0.7888
    9    0.8539
   10    1.1636
   11    1.2005
   12    1.2531
   13    1.4446
   14    1.4763
   15    1.6746
 
                       ROHF Final Molecular Orbital Analysis
                       -------------------------------------
 
 Vector    2  Occ=2.000000D+00  E=-1.336305D+00  Symmetry=a1
              MO Center= -4.4D-16,  1.7D-17,  5.3D-02, r^2= 5.0D-01
   Bfn.  Coefficient  Atom+Function         Bfn.  Coefficient  Atom+Function  
  ----- ------------  ---------------      ----- ------------  ---------------
     2      0.442632  1 O  s                  3      0.376514  1 O  s          
    15      0.193409  2 H  s                 20      0.193409  3 H  s          
 
 Vector    3  Occ=2.000000D+00  E=-6.991614D-01  Symmetry=b1
              MO Center=  4.7D-16,  4.3D-19,  1.1D-01, r^2= 7.7D-01
   Bfn.  Coefficient  Atom+Function         Bfn.  Coefficient  Atom+Function  
  ----- ------------  ---------------      ----- ------------  ---------------
     4      0.490970  1 O  px                15      0.327438  2 H  s          
    20     -0.327438  3 H  s                  7      0.222293  1 O  px         
 
 Vector    4  Occ=2.000000D+00  E=-5.665780D-01  Symmetry=a1
              MO Center=  0.0D+00,  2.8D-33, -1.6D-01, r^2= 6.7D-01
   Bfn.  Coefficient  Atom+Function         Bfn.  Coefficient  Atom+Function  
  ----- ------------  ---------------      ----- ------------  ---------------
     6      0.545092  1 O  pz                 9      0.365323  1 O  pz         
     3     -0.349466  1 O  s                 15      0.206382  2 H  s          
    20      0.206382  3 H  s                  2     -0.150106  1 O  s          
 
 Vector    5  Occ=2.000000D+00  E=-4.928505D-01  Symmetry=b2
              MO Center=  1.8D-16,  3.5D-16, -9.3D-02, r^2= 6.0D-01
   Bfn.  Coefficient  Atom+Function         Bfn.  Coefficient  Atom+Function  
  ----- ------------  ---------------      ----- ------------  ---------------
     5      0.629954  1 O  py                 8      0.496513  1 O  py         
 
 Vector    6  Occ=0.000000D+00  E= 1.855842D-01  Symmetry=a1
              MO Center=  0.0D+00, -1.3D-16,  6.1D-01, r^2= 3.0D+00
   Bfn.  Coefficient  Atom+Function         Bfn.  Coefficient  Atom+Function  
  ----- ------------  ---------------      ----- ------------  ---------------
     3      1.002016  1 O  s                 16     -0.829085  2 H  s          
    21     -0.829085  3 H  s                  9      0.337459  1 O  pz         
     6      0.190726  1 O  pz         
 
 Vector    7  Occ=0.000000D+00  E= 2.560270D-01  Symmetry=b1
              MO Center= -2.2D-16,  1.1D-20,  6.2D-01, r^2= 3.6D+00
   Bfn.  Coefficient  Atom+Function         Bfn.  Coefficient  Atom+Function  
  ----- ------------  ---------------      ----- ------------  ---------------
    16      1.443045  2 H  s                 21     -1.443045  3 H  s          
     7     -0.670470  1 O  px                 4     -0.282865  1 O  px         
 
 Vector    8  Occ=0.000000D+00  E= 7.887855D-01  Symmetry=b1
              MO Center=  1.7D-16,  9.9D-32,  2.5D-01, r^2= 1.7D+00
   Bfn.  Coefficient  Atom+Function         Bfn.  Coefficient  Atom+Function  
  ----- ------------  ---------------      ----- ------------  ---------------
    15      0.944344  2 H  s                 20     -0.944344  3 H  s          
    16     -0.687599  2 H  s                 21      0.687599  3 H  s          
     7     -0.459319  1 O  px                 4     -0.268011  1 O  px         
    19      0.152662  2 H  pz                24     -0.152662  3 H  pz         
 
 Vector    9  Occ=0.000000D+00  E= 8.539289D-01  Symmetry=a1
              MO Center=  0.0D+00, -6.0D-17,  4.7D-01, r^2= 1.6D+00
   Bfn.  Coefficient  Atom+Function         Bfn.  Coefficient  Atom+Function  
  ----- ------------  ---------------      ----- ------------  ---------------
    15      0.787873  2 H  s                 20      0.787873  3 H  s          
    16     -0.548033  2 H  s                 21     -0.548033  3 H  s          
     6     -0.329293  1 O  pz                 3      0.319834  1 O  s          
    17      0.295637  2 H  px                22     -0.295637  3 H  px         
     2     -0.255959  1 O  s          
 
 Vector   10  Occ=0.000000D+00  E= 1.163557D+00  Symmetry=a1
              MO Center=  2.8D-17, -9.9D-17, -1.4D-01, r^2= 1.2D+00
   Bfn.  Coefficient  Atom+Function         Bfn.  Coefficient  Atom+Function  
  ----- ------------  ---------------      ----- ------------  ---------------
     9      1.278201  1 O  pz                 6     -0.755060  1 O  pz         
     3      0.746107  1 O  s                 15     -0.546094  2 H  s          
    20     -0.546094  3 H  s                 19      0.250726  2 H  pz         
    24      0.250726  3 H  pz         
 
 Vector   11  Occ=0.000000D+00  E= 1.200546D+00  Symmetry=b2
              MO Center=  3.6D-16,  5.7D-17, -1.1D-01, r^2= 1.1D+00
   Bfn.  Coefficient  Atom+Function         Bfn.  Coefficient  Atom+Function  
  ----- ------------  ---------------      ----- ------------  ---------------
     8     -1.024151  1 O  py                 5      0.968624  1 O  py         
 
 Vector   12  Occ=0.000000D+00  E= 1.253100D+00  Symmetry=b1
              MO Center=  5.6D-17,  3.9D-31, -1.2D-01, r^2= 1.7D+00
   Bfn.  Coefficient  Atom+Function         Bfn.  Coefficient  Atom+Function  
  ----- ------------  ---------------      ----- ------------  ---------------
     7      1.763902  1 O  px                16     -0.824330  2 H  s          
    21      0.824330  3 H  s                  4     -0.734142  1 O  px         
    15     -0.379073  2 H  s                 20      0.379073  3 H  s          
    17      0.302603  2 H  px                22      0.302603  3 H  px         
    19      0.186301  2 H  pz                24     -0.186301  3 H  pz         
 
 Vector   13  Occ=0.000000D+00  E= 1.444572D+00  Symmetry=a1
              MO Center= -1.4D-15, -2.4D-16,  5.8D-02, r^2= 1.4D+00
   Bfn.  Coefficient  Atom+Function         Bfn.  Coefficient  Atom+Function  
  ----- ------------  ---------------      ----- ------------  ---------------
     9      0.739293  1 O  pz                19     -0.545345  2 H  pz         
    24     -0.545345  3 H  pz                 2      0.529469  1 O  s          
     3     -0.507672  1 O  s                 15     -0.332609  2 H  s          
    20     -0.332609  3 H  s                 17      0.329480  2 H  px         
    22     -0.329480  3 H  px                16      0.209597  2 H  s          
 
 Vector   14  Occ=0.000000D+00  E= 1.476290D+00  Symmetry=a2
              MO Center= -8.2D-15, -4.1D-17,  4.3D-01, r^2= 1.0D+00
   Bfn.  Coefficient  Atom+Function         Bfn.  Coefficient  Atom+Function  
  ----- ------------  ---------------      ----- ------------  ---------------
    18      0.685537  2 H  py                23     -0.685537  3 H  py         
 
 Vector   15  Occ=0.000000D+00  E= 1.674576D+00  Symmetry=b2
              MO Center=  8.5D-15,  2.0D-16,  2.9D-01, r^2= 1.2D+00
   Bfn.  Coefficient  Atom+Function         Bfn.  Coefficient  Atom+Function  
  ----- ------------  ---------------      ----- ------------  ---------------
    18      0.766901  2 H  py                23      0.766901  3 H  py         
     8     -0.634262  1 O  py                11      0.160881  1 O  d -1       
 

 center of mass
 --------------
 x =   0.00000000 y =   0.00000000 z =  -0.09762755

 moments of inertia (a.u.)
 ------------------
           2.198920681254           0.000000000000           0.000000000000
           0.000000000000           6.328975696429           0.000000000000
           0.000000000000           0.000000000000           4.130055015175
 
  Mulliken analysis of the total density
  --------------------------------------

    Atom       Charge   Shell Charges
 -----------   ------   -------------------------------------------------------
    1 O    8     8.31   2.00  0.83  0.82  2.82  1.82  0.01
    2 H    1     0.85   0.69  0.07  0.09
    3 H    1     0.85   0.69  0.07  0.09
 
       Multipole analysis of the density wrt the origin
       ------------------------------------------------
 
     L   x y z        total         open         nuclear
     -   - - -        -----         ----         -------
     0   0 0 0     -0.000000      0.000000     10.000000
 
     1   1 0 0     -0.000000      0.000000      0.000000
     1   0 1 0     -0.000000      0.000000      0.000000
     1   0 0 1      0.807644      0.000000      0.000000
 
     2   2 0 0     -3.056277      0.000000      4.097988
     2   1 1 0      0.000000      0.000000      0.000000
     2   1 0 1     -0.000000      0.000000      0.000000
     2   0 2 0     -5.232880      0.000000      0.000000
     2   0 1 1     -0.000000      0.000000      0.000000
     2   0 0 2     -4.375041      0.000000      1.965440
 

 Parallel integral file used       4 records with       0 large values

                   NWChem Extensible Many-Electron Theory Module
                   ---------------------------------------------
 
              ======================================================
                   This portion of the program was automatically
                  generated by a Tensor Contraction Engine (TCE).
                  The development of this portion of the program
                 and TCE was supported by US Department of Energy,
                Office of Science, Office of Basic Energy Science.
                      TCE is a product of Battelle and PNNL.
              Please cite: S.Hirata, J.Phys.Chem.A 107, 9887 (2003).
              ======================================================
 
            General Information
            -------------------
      Number of processors :     4
         Wavefunction type : Restricted Hartree-Fock
          No. of electrons :    10
           Alpha electrons :     5
            Beta electrons :     5
           No. of orbitals :    48
            Alpha orbitals :    24
             Beta orbitals :    24
        Alpha frozen cores :     0
         Beta frozen cores :     0
     Alpha frozen virtuals :     0
      Beta frozen virtuals :     0
         Spin multiplicity : singlet 
    Number of AO functions :    24
       Number of AO shells :    12
        Use of symmetry is : on 
      Symmetry adaption is : on 
         Schwarz screening : 0.10D-09
 
          Correlation Information
          -----------------------
          Calculation type : Coupled-cluster singles & doubles w/ perturbation           
   Perturbative correction : (T)                                                         
            Max iterations :      100
        Residual threshold : 0.10D-11
     T(0) DIIS level shift : 0.00D+00
     L(0) DIIS level shift : 0.00D+00
     T(1) DIIS level shift : 0.00D+00
     L(1) DIIS level shift : 0.00D+00
     T(R) DIIS level shift : 0.00D+00
     T(I) DIIS level shift : 0.00D+00
   CC-T/L Amplitude update :  5-th order DIIS
                I/O scheme : Global Array Library
        L-threshold : 0.10D-11
        EOM-threshold : 0.10D-11
 no EOMCCSD initial starts read in
 TCE RESTART OPTIONS
 READ_INT:   F
 WRITE_INT:  F
 READ_TA:    F
 WRITE_TA:   F
 READ_XA:    F
 WRITE_XA:   F
 READ_IN3:   F
 WRITE_IN3:  F
 SLICE:      F
 D4D5:       F
 
            Memory Information
            ------------------
          Available GA space size is     157285824 doubles
          Available MA space size is      39319788 doubles
 
 Maximum block size        24 doubles

 tile_dim =      8

 Block   Spin    Irrep     Size     Offset   Alpha
 -------------------------------------------------
   1    alpha     a1     3 doubles       0       1
   2    alpha     b1     1 doubles       3       2
   3    alpha     b2     1 doubles       4       3
   4    beta      a1     3 doubles       5       1
   5    beta      b1     1 doubles       8       2
   6    beta      b2     1 doubles       9       3
   7    alpha     a1     8 doubles      10       7
   8    alpha     a2     2 doubles      18       8
   9    alpha     b1     6 doubles      20       9
  10    alpha     b2     3 doubles      26      10
  11    beta      a1     8 doubles      29       7
  12    beta      a2     2 doubles      37       8
  13    beta      b1     6 doubles      39       9
  14    beta      b2     3 doubles      45      10

 Global array virtual files algorithm will be used

 Parallel file system coherency ......... OK

 #quartets = 3.081D+03 #integrals = 2.434D+04 #direct =  0.0% #cached =100.0%


 Integral file          = ./sp-rhf-ccsd_t_.aoints.0
 Record size in doubles =  65536        No. of integs per rec  =  43688
 Max. records in memory =      2        Max. records in file   = 409208
 No. of bits per label  =      8        No. of bits per value  =     64


File balance: exchanges=     0  moved=     0  time=   0.0

 
 Fock matrix recomputed
 1-e file size   =              190
 1-e file name   = ./sp-rhf-ccsd_t_.f1 
 Cpu & wall time / sec            0.1            0.2
 
 tce_ao2e: fast2e=1
 half-transformed integrals in memory
 
 2-e (intermediate) file size =          734976
 2-e (intermediate) file name = ./sp-rhf-ccsd_t_.v2i
 Cpu & wall time / sec            0.1            0.2
 
 tce_mo2e: fast2e=1
 2-e integrals stored in memory
 
 2-e file size   =           126194
 2-e file name   = ./sp-rhf-ccsd_t_.v2 
 Cpu & wall time / sec            0.1            0.1
 do_pt =  F
 do_lam_pt =  F
 do_cr_pt =  F
 do_lcr_pt =  F
 do_2t_pt =  F
 T1-number-of-tasks                     3
 
 t1 file size   =               33
 t1 file name   = ./sp-rhf-ccsd_t_.t1 
 t1 file handle =       -999
 T2-number-of-boxes                    54
 
 t2 file size   =             4006
 t2 file name   = ./sp-rhf-ccsd_t_.t2 
 t2 file handle =       -996

 CCSD iterations
 -----------------------------------------------------------------
 Iter          Residuum       Correlation     Cpu    Wall    V2*C2
 -----------------------------------------------------------------
    1   0.1071175083466  -0.2040593416360     0.4     0.8     0.0
    2   0.0295473659289  -0.2095298478413     0.3     0.5     0.0
    3   0.0106078700246  -0.2122592344692     0.1     0.3     0.0
    4   0.0042239906317  -0.2129334642116     0.1     0.2     0.0
    5   0.0017554648779  -0.2131904204679     0.1     0.2     0.0
 MICROCYCLE DIIS UPDATE:                     5                     5
    6   0.0001893064213  -0.2133409607652     0.1     0.2     0.0
    7   0.0000814043481  -0.2133501823717     0.2     0.3     0.0
    8   0.0000348642275  -0.2133501917676     0.2     0.4     0.0
    9   0.0000192098682  -0.2133501710544     0.2     0.4     0.0
   10   0.0000101904866  -0.2133502737780     0.1     0.3     0.0
 MICROCYCLE DIIS UPDATE:                    10                     5
   11   0.0000014771834  -0.2133504769219     0.2     0.5     0.0
   12   0.0000005813730  -0.2133504097161     0.3     0.5     0.0
   13   0.0000002694667  -0.2133504194854     0.2     0.3     0.0
   14   0.0000001455544  -0.2133504171504     0.2     0.4     0.0
   15   0.0000000777598  -0.2133504166077     0.2     0.5     0.0
 MICROCYCLE DIIS UPDATE:                    15                     5
   16   0.0000000116221  -0.2133504148492     0.3     0.6     0.0
   17   0.0000000051938  -0.2133504160140     0.4     0.7     0.0
   18   0.0000000024345  -0.2133504160743     0.3     0.5     0.0
   19   0.0000000013979  -0.2133504161086     0.3     0.5     0.0
   20   0.0000000007697  -0.2133504161257     0.3     0.6     0.0
 MICROCYCLE DIIS UPDATE:                    20                     5
   21   0.0000000001064  -0.2133504161454     0.3     0.6     0.0
   22   0.0000000000449  -0.2133504161418     0.3     0.6     0.0
   23   0.0000000000205  -0.2133504161423     0.3     0.6     0.0
   24   0.0000000000110  -0.2133504161421     0.4     0.9     0.0
   25   0.0000000000058  -0.2133504161420     0.2     0.5     0.0
 MICROCYCLE DIIS UPDATE:                    25                     5
   26   0.0000000000008  -0.2133504161419     0.2     0.4     0.0
 -----------------------------------------------------------------
 Iterations converged
 CCSD correlation energy / hartree =        -0.213350416141872
 CCSD total energy / hartree       =       -76.240094837333771

 Singles contributions

 Doubles contributions
 CCSD(T)
 Using plain CCSD(T) code
 
 CCSD[T]  correction energy / hartree =        -0.003144681965512
 CCSD[T] correlation energy / hartree =        -0.216495098107383
 CCSD[T] total energy / hartree       =       -76.243239519299280
 CCSD(T)  correction energy / hartree =        -0.003062727448805
 CCSD(T) correlation energy / hartree =        -0.216413143590677
 CCSD(T) total energy / hartree       =       -76.243157564782578
 Cpu & wall time / sec            0.0            0.1

 Parallel integral file used       4 records with       0 large values


 Task  times  cpu:        7.7s     wall:       16.1s
 
 
                                NWChem Input Module
                                -------------------
 
 
 Summary of allocated global arrays
-----------------------------------
  No active global arrays



                         GA Statistics for process    0
                         ------------------------------

       create   destroy   get      put      acc     scatter   gather  read&inc
calls: 2984     2984     8.53e+04 4687     2.13e+04    0        0     3.20e+04 
number of processes/call 1.06e+00 1.10e+00 1.11e+00 0.00e+00 0.00e+00
bytes total:             6.35e+07 5.17e+06 9.34e+06 0.00e+00 0.00e+00 2.56e+05
bytes remote:            3.59e+07 3.24e+06 5.82e+06 0.00e+00 0.00e+00 0.00e+00
Max memory consumed for GA by this process: 1724304 bytes
 
MA_summarize_allocated_blocks: starting scan ...
MA_summarize_allocated_blocks: scan completed: 0 heap blocks, 0 stack blocks
MA usage statistics:

	allocation statistics:
					      heap	     stack
					      ----	     -----
	current number of blocks	         0	         0
	maximum number of blocks	        18	        27
	current total bytes		         0	         0
	maximum total bytes		   1061744	  22509656
	maximum total K-bytes		      1062	     22510
	maximum total M-bytes		         2	        23
 
 
                                     CITATION
                                     --------
                Please cite the following reference when publishing
                           results obtained with NWChem:
 
                 M. Valiev, E.J. Bylaska, N. Govind, K. Kowalski,
              T.P. Straatsma, H.J.J. van Dam, D. Wang, J. Nieplocha,
                        E. Apra, T.L. Windus, W.A. de Jong
                 "NWChem: a comprehensive and scalable open-source
                  solution for large scale molecular simulations"
                      Comput. Phys. Commun. 181, 1477 (2010)
                           doi:10.1016/j.cpc.2010.04.018
 
                                      AUTHORS
                                      -------
          E. Apra, E. J. Bylaska, W. A. de Jong, N. Govind, K. Kowalski,
       T. P. Straatsma, M. Valiev, H. J. J. van Dam, D. Wang, T. L. Windus,
        J. Hammond, J. Autschbach, K. Bhaskaran-Nair, J. Brabec, K. Lopata,
        S. Krishnamoorthy, W. Ma, M. Klemm, O. Villa, Y. Chen, V. Anisimov,
    F. Aquino, S. Hirata, M. T. Hackler, T. Risthaus, M. Malagoli, A. Marenich,
   A. Otero-de-la-Roza, J. Mullin, P. Nichols, R. Peverati, J. Pittner, Y. Zhao,
         P.-D. Fan, A. Fonari, R. J. Harrison, M. Dupuis, D. Silverstein,
    D. M. A. Smith, J. Nieplocha, V. Tipparaju, M. Krishnan, B. E. Van Kuiken,
        A. Vazquez-Mayagoitia, L. Jensen, M. Swart, Q. Wu, T. Van Voorhis,
     A. A. Auer, M. Nooijen, L. D. Crosby, E. Brown, G. Cisneros, G. I. Fann,
   H. Fruchtl, J. Garza, K. Hirao, R. A. Kendall, J. A. Nichols, K. Tsemekhman,
    K. Wolinski, J. Anchell, D. E. Bernholdt, P. Borowski, T. Clark, D. Clerc,
   H. Dachsel, M. J. O. Deegan, K. Dyall, D. Elwood, E. Glendening, M. Gutowski,
   A. C. Hess, J. Jaffe, B. G. Johnson, J. Ju, R. Kobayashi, R. Kutteh, Z. Lin,
   R. Littlefield, X. Long, B. Meng, T. Nakajima, S. Niu, L. Pollack, M. Rosing,
   K. Glaesemann, G. Sandrone, M. Stave, H. Taylor, G. Thomas, J. H. van Lenthe,
                               A. T. Wong, Z. Zhang.

 Total times  cpu:        7.8s     wall:       16.5s
