 argument  1 = rohf_scf_h2o.nw
                                         
                                         
 
 
              Northwest Computational Chemistry Package (NWChem) 6.5
              ------------------------------------------------------
 
 
                    Environmental Molecular Sciences Laboratory
                       Pacific Northwest National Laboratory
                                Richland, WA 99352
 
                              Copyright (c) 1994-2014
                       Pacific Northwest National Laboratory
                            Battelle Memorial Institute
 
             NWChem is an open-source computational chemistry package
                        distributed under the terms of the
                      Educational Community License (ECL) 2.0
             A copy of the license is included with this distribution
                              in the LICENSE.TXT file
 
                                  ACKNOWLEDGMENT
                                  --------------

            This software and its documentation were developed at the
            EMSL at Pacific Northwest National Laboratory, a multiprogram
            national laboratory, operated for the U.S. Department of Energy
            by Battelle under Contract Number DE-AC05-76RL01830. Support
            for this work was provided by the Department of Energy Office
            of Biological and Environmental Research, Office of Basic
            Energy Sciences, and the Office of Advanced Scientific Computing.


           Job information
           ---------------

    hostname        = compute-0-5.local
    program         = nwchem
    date            = Thu Oct 11 12:44:04 2018

    compiled        = Mon_Oct_12_17:43:00_2015
    source          = /home/weverett/nwchem-build/nwchem-6.5
    nwchem branch   = 6.5
    nwchem revision = 26243
    ga revision     = 10506
    input           = rohf_scf_h2o.nw
    prefix          = rohf_scf_h2o.
    data base       = ./rohf_scf_h2o.db
    status          = startup
    nproc           =        4
    time left       =     -1s



           Memory information
           ------------------

    heap     =    9830394 doubles =     75.0 Mbytes
    stack    =    9830399 doubles =     75.0 Mbytes
    global   =   19660800 doubles =    150.0 Mbytes (distinct from heap & stack)
    total    =   39321593 doubles =    300.0 Mbytes
    verify   = yes
    hardfail = no 


           Directory information
           ---------------------
 
  0 permanent = .
  0 scratch   = .
 
 
 
 
                                NWChem Input Module
                                -------------------
 
 
 ------------------------------------------------------------------------
 geom_input: <tag> <x> <y> <z>  [charge <q>] [mass <m>] [nuc[leus] point|pt|finite|fi]                   4
 ------------------------------------------------------------------------
 input error at line   10: at end of line looking for character string
 basis
 ------------------------------------------------------------------------
  current input line : 
    10: basis
 ------------------------------------------------------------------------
 ------------------------------------------------------------------------
 There is an error in the input file
 ------------------------------------------------------------------------
 For more information see the NWChem manual at 
 http://www.nwchem-sw.org/index.php/NWChem_Documentation


 For further details see manual section: 
                                                                                
                                                                                
                                                                                
                   
0:0:geom_input: <tag> <x> <y> <z>  [charge <q>] [mass <m>] [nuc[leus] point|pt|finite|fi]:: 4
(rank:0 hostname:compute-0-5.local pid:32538):ARMCI DASSERT fail. ../../ga-5-3/armci/src/common/armci.c:ARMCI_Error():208 cond:0

===================================================================================
=   BAD TERMINATION OF ONE OF YOUR APPLICATION PROCESSES
=   PID 32538 RUNNING AT compute-0-5
=   EXIT CODE: 4
=   CLEANING UP REMAINING PROCESSES
=   YOU CAN IGNORE THE BELOW CLEANUP MESSAGES
===================================================================================
