 argument  1 = opt-rhf-scf.nw
 


============================== echo of input deck ==============================
echo

geometry noautosym nocenter units Angstrom
O     0.000000000000    0.000000000000   -0.065638538099
H     0.000000000000   -0.757480611647    0.520865616174
H    -0.000000000000    0.757480611647    0.520865616174
symmetry c1
end

basis
#qcdb basis 6-31g* for element O atom 1
O   S
5484.67170000      0.00183110
 825.23495000      0.01395010
 188.04696000      0.06844510
  52.96450000      0.23271430
  16.89757000      0.47019300
   5.79963530      0.35852090
O   S
  15.53961600     -0.11077750
   3.59993360     -0.14802630
   1.01376180      1.13076700
O   P
  15.53961600      0.07087430
   3.59993360      0.33975280
   1.01376180      0.72715860
O   S
   0.27000580      1.00000000
O   P
   0.27000580      1.00000000
O   D
   0.80000000      1.00000000
#qcdb basis 6-31G* for element H atom 2
H   S
   18.73113700      0.03349460
    2.82539370      0.23472695
    0.64012170      0.81375733
H   S
    0.16127780      1.00000000
#qcdb basis 6-31G* for element H atom 3
H   S
   18.73113700      0.03349460
    2.82539370      0.23472695
    0.64012170      0.81375733
H   S
    0.16127780      1.00000000
end

charge 0
memory 400 mb

task scf energy
================================================================================


                                         
                                         
 
 
              Northwest Computational Chemistry Package (NWChem) 6.5
              ------------------------------------------------------
 
 
                    Environmental Molecular Sciences Laboratory
                       Pacific Northwest National Laboratory
                                Richland, WA 99352
 
                              Copyright (c) 1994-2014
                       Pacific Northwest National Laboratory
                            Battelle Memorial Institute
 
             NWChem is an open-source computational chemistry package
                        distributed under the terms of the
                      Educational Community License (ECL) 2.0
             A copy of the license is included with this distribution
                              in the LICENSE.TXT file
 
                                  ACKNOWLEDGMENT
                                  --------------

            This software and its documentation were developed at the
            EMSL at Pacific Northwest National Laboratory, a multiprogram
            national laboratory, operated for the U.S. Department of Energy
            by Battelle under Contract Number DE-AC05-76RL01830. Support
            for this work was provided by the Department of Energy Office
            of Biological and Environmental Research, Office of Basic
            Energy Sciences, and the Office of Advanced Scientific Computing.


           Job information
           ---------------

    hostname        = compute-0-5.local
    program         = nwchem
    date            = Wed Oct 10 15:10:30 2018

    compiled        = Mon_Oct_12_17:43:00_2015
    source          = /home/weverett/nwchem-build/nwchem-6.5
    nwchem branch   = 6.5
    nwchem revision = 26243
    ga revision     = 10506
    input           = opt-rhf-scf.nw
    prefix          = opt-rhf-scf.
    data base       = ./opt-rhf-scf.db
    status          = startup
    nproc           =        4
    time left       =     -1s



           Memory information
           ------------------

    heap     =   13107194 doubles =    100.0 Mbytes
    stack    =   13107199 doubles =    100.0 Mbytes
    global   =   26214400 doubles =    200.0 Mbytes (distinct from heap & stack)
    total    =   52428793 doubles =    400.0 Mbytes
    verify   = yes
    hardfail = no 


           Directory information
           ---------------------
 
  0 permanent = .
  0 scratch   = .
 
 
 
 
                                NWChem Input Module
                                -------------------
 
 

 Scaling coordinates for geometry "geometry" by  1.889725989
 (inverse scale =  0.529177249)


          ------
          auto-z
          ------
 
 
                             Geometry "geometry" -> ""
                             -------------------------
 
 Output coordinates in angstroms (scale by  1.889725989 to convert to a.u.)
 
  No.       Tag          Charge          X              Y              Z
 ---- ---------------- ---------- -------------- -------------- --------------
    1 O                    8.0000     0.00000000     0.00000000    -0.06563854
    2 H                    1.0000     0.00000000    -0.75748061     0.52086562
    3 H                    1.0000     0.00000000     0.75748061     0.52086562
 
      Atomic Mass 
      ----------- 
 
      O                 15.994910
      H                  1.007825
 

 Effective nuclear repulsion energy (a.u.)       9.1873342402

            Nuclear Dipole moment (a.u.) 
            ----------------------------
        X                 Y               Z
 ---------------- ---------------- ----------------
     0.0000000000     0.0000000000     0.9762757725
 


                                Z-matrix (autoz)
                                -------- 

 Units are Angstrom for bonds and degrees for angles
 
      Type          Name      I     J     K     L     M      Value
      ----------- --------  ----- ----- ----- ----- ----- ----------
    1 Stretch                  1     2                       0.95800
    2 Stretch                  1     3                       0.95800
    3 Bend                     2     1     3               104.50000
 
 
            XYZ format geometry
            -------------------
     3
 geometry
 O                     0.00000000     0.00000000    -0.06563854
 H                     0.00000000    -0.75748061     0.52086562
 H                     0.00000000     0.75748061     0.52086562
 
 ==============================================================================
                                internuclear distances
 ------------------------------------------------------------------------------
       center one      |      center two      | atomic units |  angstroms
 ------------------------------------------------------------------------------
    2 H                |   1 O                |     1.81036  |     0.95800
    3 H                |   1 O                |     1.81036  |     0.95800
 ------------------------------------------------------------------------------
                         number of included internuclear distances:          2
 ==============================================================================



 ==============================================================================
                                 internuclear angles
 ------------------------------------------------------------------------------
        center 1       |       center 2       |       center 3       |  degrees
 ------------------------------------------------------------------------------
    2 H                |   1 O                |   3 H                |   104.50
 ------------------------------------------------------------------------------
                            number of included internuclear angles:          1
 ==============================================================================



  library name resolved from: environment
  library file name is: </home/weverett/nwchem/6.5-all/data/libraries/>
  
                      Basis "ao basis" -> "" (cartesian)
                      -----
  O (Oxygen)
  ----------
            Exponent  Coefficients 
       -------------- ---------------------------------------------------------
  1 S  5.48467170E+03  0.001831
  1 S  8.25234950E+02  0.013950
  1 S  1.88046960E+02  0.068445
  1 S  5.29645000E+01  0.232714
  1 S  1.68975700E+01  0.470193
  1 S  5.79963530E+00  0.358521
 
  2 S  1.55396160E+01 -0.110778
  2 S  3.59993360E+00 -0.148026
  2 S  1.01376180E+00  1.130767
 
  3 P  1.55396160E+01  0.070874
  3 P  3.59993360E+00  0.339753
  3 P  1.01376180E+00  0.727159
 
  4 S  2.70005800E-01  1.000000
 
  5 P  2.70005800E-01  1.000000
 
  6 D  8.00000000E-01  1.000000
 
  H (Hydrogen)
  ------------
            Exponent  Coefficients 
       -------------- ---------------------------------------------------------
  1 S  1.87311370E+01  0.033495
  1 S  2.82539370E+00  0.234727
  1 S  6.40121700E-01  0.813757
 
  2 S  1.61277800E-01  1.000000
 
  3 S  1.87311370E+01  0.033495
  3 S  2.82539370E+00  0.234727
  3 S  6.40121700E-01  0.813757
 
  4 S  1.61277800E-01  1.000000
 


 Summary of "ao basis" -> "" (cartesian)
 ------------------------------------------------------------------------------
       Tag                 Description            Shells   Functions and Types
 ---------------- ------------------------------  ------  ---------------------
 O                       user specified              6       15   3s2p1d
 H                       user specified              4        4   4s


                                 NWChem SCF Module
                                 -----------------
 
 

  ao basis        = "ao basis"
  functions       =    23
  atoms           =     3
  closed shells   =     5
  open shells     =     0
  charge          =   0.00
  wavefunction    = RHF 
  input vectors   = atomic
  output vectors  = ./opt-rhf-scf.movecs
  use symmetry    = F
  symmetry adapt  = F


 Summary of "ao basis" -> "ao basis" (cartesian)
 ------------------------------------------------------------------------------
       Tag                 Description            Shells   Functions and Types
 ---------------- ------------------------------  ------  ---------------------
 O                       user specified              6       15   3s2p1d
 H                       user specified              4        4   4s



 Forming initial guess at       0.4s


 !! The overlap matrix has   4 vectors deemed linearly dependent with
    eigenvalues:
-1.76D-16-6.07D-17 2.12D-16 6.03D-16
 
 
      Superposition of Atomic Density Guess
      -------------------------------------
 
 Sum of atomic energies:         -75.75081621
 
      Non-variational initial energy
      ------------------------------

 Total energy =     -75.917956
 1-e energy   =    -121.722005
 2-e energy   =      36.616715
 HOMO         =      -0.470155
 LUMO         =       0.114574
 

 Starting SCF solution at       0.5s



 ----------------------------------------------
         Quadratically convergent ROHF

 Convergence threshold     :          1.000E-04
 Maximum no. of iterations :           30
 Final Fock-matrix accuracy:          1.000E-10
 ----------------------------------------------


 #quartets = 5.565D+03 #integrals = 2.222D+04 #direct =  0.0% #cached =100.0%


 Integral file          = ./opt-rhf-scf.aoints.0
 Record size in doubles =  65536        No. of integs per rec  =  43688
 Max. records in memory =      2        Max. records in file   = 416889
 No. of bits per label  =      8        No. of bits per value  =     64


File balance: exchanges=     0  moved=     0  time=   0.0


              iter       energy          gnorm     gmax       time
             ----- ------------------- --------- --------- --------
                 1      -75.9747060222  8.31D-01  3.41D-01      0.5
                 2      -76.0080522900  1.84D-01  1.02D-01      0.5
                 3      -76.0103775812  4.09D-02  2.40D-02      0.5
                 4      -76.0104960660  1.64D-03  9.33D-04      0.5
                 5      -76.0104963070  2.30D-06  9.69D-07      0.6


       Final RHF  results 
       ------------------ 

         Total SCF energy =    -76.010496307006
      One-electron energy =   -123.041302377263
      Two-electron energy =     37.843471830093
 Nuclear repulsion energy =      9.187334240165

        Time for solution =      0.2s


             Final eigenvalues
             -----------------

              1      
    1  -20.5605
    2   -1.3414
    3   -0.7065
    4   -0.5709
    5   -0.4979
    6    0.2106
    7    0.3040
    8    1.0222
    9    1.1315
   10    1.1678
   11    1.1710
   12    1.3806
   13    1.4341
   14    2.0203
   15    2.0340
 
                       ROHF Final Molecular Orbital Analysis
                       -------------------------------------
 
 Vector    2  Occ=2.000000D+00  E=-1.341405D+00
              MO Center=  3.4D-17, -1.7D-15,  1.1D-01, r^2= 5.0D-01
   Bfn.  Coefficient  Atom+Function         Bfn.  Coefficient  Atom+Function  
  ----- ------------  ---------------      ----- ------------  ---------------
     2      0.475892  1 O  s                  6      0.439654  1 O  s          
     1     -0.209704  1 O  s          
 
 Vector    3  Occ=2.000000D+00  E=-7.064718D-01
              MO Center=  3.5D-18,  5.4D-16,  1.5D-01, r^2= 7.7D-01
   Bfn.  Coefficient  Atom+Function         Bfn.  Coefficient  Atom+Function  
  ----- ------------  ---------------      ----- ------------  ---------------
     4      0.507475  1 O  py                 8      0.306693  1 O  py         
 
 Vector    4  Occ=2.000000D+00  E=-5.709038D-01
              MO Center=  7.3D-17, -4.3D-16, -1.2D-01, r^2= 6.9D-01
   Bfn.  Coefficient  Atom+Function         Bfn.  Coefficient  Atom+Function  
  ----- ------------  ---------------      ----- ------------  ---------------
     5      0.555308  1 O  pz                 9      0.403174  1 O  pz         
     6     -0.325343  1 O  s                  2     -0.164548  1 O  s          
 
 Vector    5  Occ=2.000000D+00  E=-4.978584D-01
              MO Center= -4.2D-16,  5.1D-16, -4.6D-02, r^2= 6.0D-01
   Bfn.  Coefficient  Atom+Function         Bfn.  Coefficient  Atom+Function  
  ----- ------------  ---------------      ----- ------------  ---------------
     3      0.639642  1 O  px                 7      0.511444  1 O  px         
 
 Vector    6  Occ=0.000000D+00  E= 2.105785D-01
              MO Center=  4.2D-17,  7.0D-14,  7.0D-01, r^2= 2.6D+00
   Bfn.  Coefficient  Atom+Function         Bfn.  Coefficient  Atom+Function  
  ----- ------------  ---------------      ----- ------------  ---------------
     6      1.413198  1 O  s                 17     -0.520239  2 H  s          
    19     -0.520239  2 H  s                 21     -0.520239  3 H  s          
    23     -0.520239  3 H  s                  9      0.508432  1 O  pz         
     5      0.217486  1 O  pz         
 
 Vector    7  Occ=0.000000D+00  E= 3.039534D-01
              MO Center= -1.4D-18, -6.7D-14,  6.7D-01, r^2= 2.7D+00
   Bfn.  Coefficient  Atom+Function         Bfn.  Coefficient  Atom+Function  
  ----- ------------  ---------------      ----- ------------  ---------------
     8      0.833296  1 O  py                17      0.696427  2 H  s          
    19      0.696427  2 H  s                 21     -0.696427  3 H  s          
    23     -0.696427  3 H  s                  4      0.329608  1 O  py         
 
 Vector    8  Occ=0.000000D+00  E= 1.022228D+00
              MO Center=  1.9D-17,  1.6D-14,  1.0D-01, r^2= 1.5D+00
   Bfn.  Coefficient  Atom+Function         Bfn.  Coefficient  Atom+Function  
  ----- ------------  ---------------      ----- ------------  ---------------
     8      0.658248  1 O  py                16      0.419482  2 H  s          
    18      0.419482  2 H  s                 20     -0.419482  3 H  s          
    22     -0.419482  3 H  s                 14     -0.343335  1 O  dyz        
    17     -0.231307  2 H  s                 19     -0.231307  2 H  s          
    21      0.231307  3 H  s                 23      0.231307  3 H  s          
 
 Vector    9  Occ=0.000000D+00  E= 1.131541D+00
              MO Center=  6.6D-18, -2.1D-15, -1.3D-01, r^2= 1.6D+00
   Bfn.  Coefficient  Atom+Function         Bfn.  Coefficient  Atom+Function  
  ----- ------------  ---------------      ----- ------------  ---------------
     6      1.634692  1 O  s                  2     -0.921793  1 O  s          
     9     -0.701526  1 O  pz                 5      0.408254  1 O  pz         
    10     -0.388441  1 O  dxx               15     -0.317084  1 O  dzz        
    16      0.278662  2 H  s                 18      0.278662  2 H  s          
    20      0.278662  3 H  s                 22      0.278662  3 H  s          
 
 Vector   10  Occ=0.000000D+00  E= 1.167786D+00
              MO Center=  5.5D-15,  5.0D-17, -6.2D-02, r^2= 1.1D+00
   Bfn.  Coefficient  Atom+Function         Bfn.  Coefficient  Atom+Function  
  ----- ------------  ---------------      ----- ------------  ---------------
     7     -1.036062  1 O  px                 3      0.962728  1 O  px         
 
 Vector   11  Occ=0.000000D+00  E= 1.170958D+00
              MO Center= -5.0D-15, -9.4D-15,  7.7D-02, r^2= 1.1D+00
   Bfn.  Coefficient  Atom+Function         Bfn.  Coefficient  Atom+Function  
  ----- ------------  ---------------      ----- ------------  ---------------
     5      0.766347  1 O  pz                 6      0.485201  1 O  s          
     9     -0.380494  1 O  pz                16     -0.326779  2 H  s          
    18     -0.326779  2 H  s                 20     -0.326779  3 H  s          
    22     -0.326779  3 H  s                 13     -0.251584  1 O  dyy        
    17      0.175734  2 H  s                 19      0.175734  2 H  s          
 
 Vector   12  Occ=0.000000D+00  E= 1.380585D+00
              MO Center= -1.1D-17,  4.7D-14, -6.5D-03, r^2= 1.4D+00
   Bfn.  Coefficient  Atom+Function         Bfn.  Coefficient  Atom+Function  
  ----- ------------  ---------------      ----- ------------  ---------------
     8      1.537172  1 O  py                 4     -1.037109  1 O  py         
    17      0.456436  2 H  s                 19      0.456436  2 H  s          
    21     -0.456436  3 H  s                 23     -0.456436  3 H  s          
 
 Vector   13  Occ=0.000000D+00  E= 1.434056D+00
              MO Center= -1.1D-16, -4.9D-14,  4.4D-01, r^2= 1.3D+00
   Bfn.  Coefficient  Atom+Function         Bfn.  Coefficient  Atom+Function  
  ----- ------------  ---------------      ----- ------------  ---------------
     6      3.568825  1 O  s                  2     -1.416773  1 O  s          
     9      1.174952  1 O  pz                13     -0.644343  1 O  dyy        
     5     -0.507257  1 O  pz                15     -0.402128  1 O  dzz        
    17     -0.391453  2 H  s                 19     -0.391453  2 H  s          
    21     -0.391453  3 H  s                 23     -0.391453  3 H  s          
 
 Vector   14  Occ=0.000000D+00  E= 2.020281D+00
              MO Center= -3.2D-16, -1.0D-15, -1.1D-01, r^2= 6.2D-01
   Bfn.  Coefficient  Atom+Function         Bfn.  Coefficient  Atom+Function  
  ----- ------------  ---------------      ----- ------------  ---------------
    15      1.008777  1 O  dzz               13     -0.580887  1 O  dyy        
    10     -0.366504  1 O  dxx                6     -0.226754  1 O  s          
 
 Vector   15  Occ=0.000000D+00  E= 2.033978D+00
              MO Center= -4.1D-17, -1.1D-15, -6.6D-02, r^2= 6.1D-01
   Bfn.  Coefficient  Atom+Function         Bfn.  Coefficient  Atom+Function  
  ----- ------------  ---------------      ----- ------------  ---------------
    11      1.732051  1 O  dxy        
 

 center of mass
 --------------
 x =   0.00000000 y =   0.00000000 z =   0.00000003

 moments of inertia (a.u.)
 ------------------
           6.328975696429           0.000000000000           0.000000000000
           0.000000000000           2.198920681254           0.000000000000
           0.000000000000           0.000000000000           4.130055015175
 
  Mulliken analysis of the total density
  --------------------------------------

    Atom       Charge   Shell Charges
 -----------   ------   -------------------------------------------------------
    1 O    8     8.87   2.00  0.90  2.89  0.92  2.07  0.08
    2 H    1     0.57   0.23  0.05  0.23  0.05
    3 H    1     0.57   0.23  0.05  0.23  0.05
 
       Multipole analysis of the density wrt the origin
       ------------------------------------------------
 
     L   x y z        total         open         nuclear
     -   - - -        -----         ----         -------
     0   0 0 0     -0.000000      0.000000     10.000000
 
     1   1 0 0      0.000000      0.000000      0.000000
     1   0 1 0      0.000000      0.000000      0.000000
     1   0 0 1      0.875723      0.000000      0.976276
 
     2   2 0 0     -5.373931      0.000000      0.000000
     2   1 1 0     -0.000000      0.000000      0.000000
     2   1 0 1      0.000000      0.000000      0.000000
     2   0 2 0     -3.070694      0.000000      4.097988
     2   0 1 1      0.000000      0.000000      0.000000
     2   0 0 2     -4.273653      0.000000      2.060752
 

 Parallel integral file used       4 records with       0 large values


 Task  times  cpu:        0.3s     wall:        0.8s
 
 
                                NWChem Input Module
                                -------------------
 
 
 Summary of allocated global arrays
-----------------------------------
  No active global arrays



                         GA Statistics for process    0
                         ------------------------------

       create   destroy   get      put      acc     scatter   gather  read&inc
calls:  236      236     1137      551      941        0        0       73     
number of processes/call 1.29e+00 1.21e+00 1.12e+00 0.00e+00 0.00e+00
bytes total:             8.93e+05 5.03e+05 1.69e+05 0.00e+00 0.00e+00 5.84e+02
bytes remote:            1.29e+05 5.26e+04 5.78e+04 0.00e+00 0.00e+00 0.00e+00
Max memory consumed for GA by this process: 31288 bytes
 
MA_summarize_allocated_blocks: starting scan ...
MA_summarize_allocated_blocks: scan completed: 0 heap blocks, 0 stack blocks
MA usage statistics:

	allocation statistics:
					      heap	     stack
					      ----	     -----
	current number of blocks	         0	         0
	maximum number of blocks	        17	        14
	current total bytes		         0	         0
	maximum total bytes		   1061760	  22509592
	maximum total K-bytes		      1062	     22510
	maximum total M-bytes		         2	        23
 
 
                                     CITATION
                                     --------
                Please cite the following reference when publishing
                           results obtained with NWChem:
 
                 M. Valiev, E.J. Bylaska, N. Govind, K. Kowalski,
              T.P. Straatsma, H.J.J. van Dam, D. Wang, J. Nieplocha,
                        E. Apra, T.L. Windus, W.A. de Jong
                 "NWChem: a comprehensive and scalable open-source
                  solution for large scale molecular simulations"
                      Comput. Phys. Commun. 181, 1477 (2010)
                           doi:10.1016/j.cpc.2010.04.018
 
                                      AUTHORS
                                      -------
          E. Apra, E. J. Bylaska, W. A. de Jong, N. Govind, K. Kowalski,
       T. P. Straatsma, M. Valiev, H. J. J. van Dam, D. Wang, T. L. Windus,
        J. Hammond, J. Autschbach, K. Bhaskaran-Nair, J. Brabec, K. Lopata,
        S. Krishnamoorthy, W. Ma, M. Klemm, O. Villa, Y. Chen, V. Anisimov,
    F. Aquino, S. Hirata, M. T. Hackler, T. Risthaus, M. Malagoli, A. Marenich,
   A. Otero-de-la-Roza, J. Mullin, P. Nichols, R. Peverati, J. Pittner, Y. Zhao,
         P.-D. Fan, A. Fonari, R. J. Harrison, M. Dupuis, D. Silverstein,
    D. M. A. Smith, J. Nieplocha, V. Tipparaju, M. Krishnan, B. E. Van Kuiken,
        A. Vazquez-Mayagoitia, L. Jensen, M. Swart, Q. Wu, T. Van Voorhis,
     A. A. Auer, M. Nooijen, L. D. Crosby, E. Brown, G. Cisneros, G. I. Fann,
   H. Fruchtl, J. Garza, K. Hirao, R. A. Kendall, J. A. Nichols, K. Tsemekhman,
    K. Wolinski, J. Anchell, D. E. Bernholdt, P. Borowski, T. Clark, D. Clerc,
   H. Dachsel, M. J. O. Deegan, K. Dyall, D. Elwood, E. Glendening, M. Gutowski,
   A. C. Hess, J. Jaffe, B. G. Johnson, J. Ju, R. Kobayashi, R. Kutteh, Z. Lin,
   R. Littlefield, X. Long, B. Meng, T. Nakajima, S. Niu, L. Pollack, M. Rosing,
   K. Glaesemann, G. Sandrone, M. Stave, H. Taylor, G. Thomas, J. H. van Lenthe,
                               A. T. Wong, Z. Zhang.

 Total times  cpu:        0.4s     wall:        1.1s
